<?xml version="1.0" encoding="UTF-8"?>

<!-- generated on 2021-12-05 16:30:53 by Eclipse SUMO GUI Version 1.10.0
<configuration xmlns:xsi="http://www.w3.org/2001/XMLSchema-instance" xsi:noNamespaceSchemaLocation="http://sumo.dlr.de/xsd/sumoConfiguration.xsd">

    <input>
        <net-file value="cfg/twoWay6lanes.net.xml"/>
        <route-files value="cfg/twoWay6lanes.rou.xml"/>
    </input>

    <output>
        <queue-output value="cfg/queues.xml"/>
        <tripinfo-output value="my_output_file.xml"/>
    </output>

    <time>
        <step-length value="0.5"/>
    </time>

    <report>
        <verbose value="true"/>
        <duration-log.statistics value="true"/>
    </report>

    <traci_server>
        <remote-port value="50800"/>
    </traci_server>

    <gui_only>
        <gui-settings-file value="cfg/twoWay6lanes.gui.xml"/>
        <start value="true"/>
        <tracker-interval value="0.5"/>
    </gui_only>

</configuration>
-->

<queue-export xmlns:xsi="http://www.w3.org/2001/XMLSchema-instance" xsi:noNamespaceSchemaLocation="http://sumo.dlr.de/xsd/queue_file.xsd">
    <data timestep="0.00">
        <lanes/>
    </data>
    <data timestep="0.50">
        <lanes/>
    </data>
    <data timestep="1.00">
        <lanes/>
    </data>
    <data timestep="1.50">
        <lanes/>
    </data>
    <data timestep="2.00">
        <lanes/>
    </data>
    <data timestep="2.50">
        <lanes/>
    </data>
    <data timestep="3.00">
        <lanes/>
    </data>
    <data timestep="3.50">
        <lanes/>
    </data>
    <data timestep="4.00">
        <lanes/>
    </data>
    <data timestep="4.50">
        <lanes/>
    </data>
    <data timestep="5.00">
        <lanes/>
    </data>
    <data timestep="5.50">
        <lanes/>
    </data>
    <data timestep="6.00">
        <lanes/>
    </data>
    <data timestep="6.50">
        <lanes/>
    </data>
    <data timestep="7.00">
        <lanes/>
    </data>
    <data timestep="7.50">
        <lanes/>
    </data>
    <data timestep="8.00">
        <lanes/>
    </data>
    <data timestep="8.50">
        <lanes/>
    </data>
    <data timestep="9.00">
        <lanes/>
    </data>
    <data timestep="9.50">
        <lanes/>
    </data>
    <data timestep="10.00">
        <lanes/>
    </data>
    <data timestep="10.50">
        <lanes/>
    </data>
    <data timestep="11.00">
        <lanes/>
    </data>
    <data timestep="11.50">
        <lanes/>
    </data>
    <data timestep="12.00">
        <lanes/>
    </data>
    <data timestep="12.50">
        <lanes/>
    </data>
    <data timestep="13.00">
        <lanes/>
    </data>
    <data timestep="13.50">
        <lanes/>
    </data>
    <data timestep="14.00">
        <lanes/>
    </data>
    <data timestep="14.50">
        <lanes/>
    </data>
    <data timestep="15.00">
        <lanes/>
    </data>
    <data timestep="15.50">
        <lanes/>
    </data>
    <data timestep="16.00">
        <lanes/>
    </data>
    <data timestep="16.50">
        <lanes/>
    </data>
    <data timestep="17.00">
        <lanes/>
    </data>
    <data timestep="17.50">
        <lanes/>
    </data>
    <data timestep="18.00">
        <lanes/>
    </data>
    <data timestep="18.50">
        <lanes/>
    </data>
    <data timestep="19.00">
        <lanes/>
    </data>
    <data timestep="19.50">
        <lanes/>
    </data>
    <data timestep="20.00">
        <lanes/>
    </data>
    <data timestep="20.50">
        <lanes/>
    </data>
    <data timestep="21.00">
        <lanes/>
    </data>
    <data timestep="21.50">
        <lanes/>
    </data>
    <data timestep="22.00">
        <lanes/>
    </data>
    <data timestep="22.50">
        <lanes/>
    </data>
    <data timestep="23.00">
        <lanes/>
    </data>
    <data timestep="23.50">
        <lanes/>
    </data>
    <data timestep="24.00">
        <lanes/>
    </data>
    <data timestep="24.50">
        <lanes/>
    </data>
    <data timestep="25.00">
        <lanes/>
    </data>
    <data timestep="25.50">
        <lanes/>
    </data>
    <data timestep="26.00">
        <lanes/>
    </data>
    <data timestep="26.50">
        <lanes/>
    </data>
    <data timestep="27.00">
        <lanes/>
    </data>
    <data timestep="27.50">
        <lanes/>
    </data>
    <data timestep="28.00">
        <lanes/>
    </data>
    <data timestep="28.50">
        <lanes/>
    </data>
    <data timestep="29.00">
        <lanes/>
    </data>
    <data timestep="29.50">
        <lanes/>
    </data>
    <data timestep="30.00">
        <lanes/>
    </data>
    <data timestep="30.50">
        <lanes/>
    </data>
    <data timestep="31.00">
        <lanes/>
    </data>
    <data timestep="31.50">
        <lanes/>
    </data>
    <data timestep="32.00">
        <lanes/>
    </data>
    <data timestep="32.50">
        <lanes/>
    </data>
    <data timestep="33.00">
        <lanes/>
    </data>
    <data timestep="33.50">
        <lanes/>
    </data>
    <data timestep="34.00">
        <lanes/>
    </data>
    <data timestep="34.50">
        <lanes/>
    </data>
    <data timestep="35.00">
        <lanes/>
    </data>
    <data timestep="35.50">
        <lanes/>
    </data>
    <data timestep="36.00">
        <lanes/>
    </data>
    <data timestep="36.50">
        <lanes/>
    </data>
    <data timestep="37.00">
        <lanes/>
    </data>
    <data timestep="37.50">
        <lanes/>
    </data>
    <data timestep="38.00">
        <lanes/>
    </data>
    <data timestep="38.50">
        <lanes/>
    </data>
    <data timestep="39.00">
        <lanes/>
    </data>
    <data timestep="39.50">
        <lanes/>
    </data>
    <data timestep="40.00">
        <lanes/>
    </data>
    <data timestep="40.50">
        <lanes/>
    </data>
    <data timestep="41.00">
        <lanes/>
    </data>
    <data timestep="41.50">
        <lanes/>
    </data>
    <data timestep="42.00">
        <lanes/>
    </data>
    <data timestep="42.50">
        <lanes/>
    </data>
    <data timestep="43.00">
        <lanes/>
    </data>
    <data timestep="43.50">
        <lanes/>
    </data>
    <data timestep="44.00">
        <lanes/>
    </data>
    <data timestep="44.50">
        <lanes/>
    </data>
    <data timestep="45.00">
        <lanes/>
    </data>
    <data timestep="45.50">
        <lanes/>
    </data>
    <data timestep="46.00">
        <lanes/>
    </data>
    <data timestep="46.50">
        <lanes/>
    </data>
    <data timestep="47.00">
        <lanes/>
    </data>
    <data timestep="47.50">
        <lanes/>
    </data>
    <data timestep="48.00">
        <lanes/>
    </data>
    <data timestep="48.50">
        <lanes/>
    </data>
    <data timestep="49.00">
        <lanes/>
    </data>
    <data timestep="49.50">
        <lanes/>
    </data>
    <data timestep="50.00">
        <lanes/>
    </data>
    <data timestep="50.50">
        <lanes/>
    </data>
    <data timestep="51.00">
        <lanes/>
    </data>
    <data timestep="51.50">
        <lanes/>
    </data>
    <data timestep="52.00">
        <lanes/>
    </data>
    <data timestep="52.50">
        <lanes/>
    </data>
    <data timestep="53.00">
        <lanes/>
    </data>
    <data timestep="53.50">
        <lanes/>
    </data>
    <data timestep="54.00">
        <lanes/>
    </data>
    <data timestep="54.50">
        <lanes/>
    </data>
    <data timestep="55.00">
        <lanes/>
    </data>
    <data timestep="55.50">
        <lanes/>
    </data>
    <data timestep="56.00">
        <lanes/>
    </data>
    <data timestep="56.50">
        <lanes/>
    </data>
    <data timestep="57.00">
        <lanes/>
    </data>
    <data timestep="57.50">
        <lanes/>
    </data>
    <data timestep="58.00">
        <lanes/>
    </data>
    <data timestep="58.50">
        <lanes/>
    </data>
    <data timestep="59.00">
        <lanes/>
    </data>
    <data timestep="59.50">
        <lanes/>
    </data>
    <data timestep="60.00">
        <lanes/>
    </data>
    <data timestep="60.50">
        <lanes/>
    </data>
    <data timestep="61.00">
        <lanes/>
    </data>
    <data timestep="61.50">
        <lanes/>
    </data>
    <data timestep="62.00">
        <lanes/>
    </data>
    <data timestep="62.50">
        <lanes/>
    </data>
    <data timestep="63.00">
        <lanes/>
    </data>
    <data timestep="63.50">
        <lanes/>
    </data>
    <data timestep="64.00">
        <lanes/>
    </data>
    <data timestep="64.50">
        <lanes/>
    </data>
    <data timestep="65.00">
        <lanes/>
    </data>
    <data timestep="65.50">
        <lanes/>
    </data>
    <data timestep="66.00">
        <lanes/>
    </data>
    <data timestep="66.50">
        <lanes/>
    </data>
    <data timestep="67.00">
        <lanes/>
    </data>
    <data timestep="67.50">
        <lanes/>
    </data>
    <data timestep="68.00">
        <lanes/>
    </data>
    <data timestep="68.50">
        <lanes/>
    </data>
    <data timestep="69.00">
        <lanes/>
    </data>
    <data timestep="69.50">
        <lanes/>
    </data>
    <data timestep="70.00">
        <lanes/>
    </data>
    <data timestep="70.50">
        <lanes/>
    </data>
    <data timestep="71.00">
        <lanes/>
    </data>
    <data timestep="71.50">
        <lanes/>
    </data>
    <data timestep="72.00">
        <lanes>
            <lane id="end2_junction_2" queueing_time="0.00" queueing_length="0.00" queueing_length_experimental="154.46"/>
        </lanes>
    </data>
    <data timestep="72.50">
        <lanes>
            <lane id="end2_junction_2" queueing_time="0.00" queueing_length="0.00" queueing_length_experimental="153.81"/>
        </lanes>
    </data>
    <data timestep="73.00">
        <lanes/>
    </data>
    <data timestep="73.50">
        <lanes/>
    </data>
    <data timestep="74.00">
        <lanes/>
    </data>
    <data timestep="74.50">
        <lanes/>
    </data>
    <data timestep="75.00">
        <lanes/>
    </data>
    <data timestep="75.50">
        <lanes/>
    </data>
    <data timestep="76.00">
        <lanes/>
    </data>
    <data timestep="76.50">
        <lanes/>
    </data>
    <data timestep="77.00">
        <lanes/>
    </data>
    <data timestep="77.50">
        <lanes/>
    </data>
    <data timestep="78.00">
        <lanes/>
    </data>
    <data timestep="78.50">
        <lanes/>
    </data>
    <data timestep="79.00">
        <lanes>
            <lane id="end3_junction_2" queueing_time="0.00" queueing_length="0.00" queueing_length_experimental="152.29"/>
        </lanes>
    </data>
    <data timestep="79.50">
        <lanes>
            <lane id="end3_junction_2" queueing_time="0.00" queueing_length="0.00" queueing_length_experimental="151.62"/>
        </lanes>
    </data>
    <data timestep="80.00">
        <lanes>
            <lane id="end4_junction_2" queueing_time="0.00" queueing_length="0.00" queueing_length_experimental="156.48"/>
        </lanes>
    </data>
    <data timestep="80.50">
        <lanes>
            <lane id="end1_junction_2" queueing_time="0.00" queueing_length="0.00" queueing_length_experimental="155.69"/>
            <lane id="end4_junction_1" queueing_time="0.00" queueing_length="0.00" queueing_length_experimental="155.50"/>
            <lane id="end4_junction_2" queueing_time="0.00" queueing_length="0.00" queueing_length_experimental="155.95"/>
        </lanes>
    </data>
    <data timestep="81.00">
        <lanes>
            <lane id="end1_junction_2" queueing_time="0.00" queueing_length="0.00" queueing_length_experimental="155.41"/>
        </lanes>
    </data>
    <data timestep="81.50">
        <lanes>
            <lane id="end1_junction_2" queueing_time="0.00" queueing_length="0.00" queueing_length_experimental="155.02"/>
        </lanes>
    </data>
    <data timestep="82.00">
        <lanes>
            <lane id="end1_junction_2" queueing_time="0.00" queueing_length="0.00" queueing_length_experimental="164.66"/>
        </lanes>
    </data>
    <data timestep="82.50">
        <lanes>
            <lane id="end1_junction_2" queueing_time="0.00" queueing_length="0.00" queueing_length_experimental="164.22"/>
            <lane id="end2_junction_2" queueing_time="0.00" queueing_length="0.00" queueing_length_experimental="172.47"/>
            <lane id="end3_junction_1" queueing_time="0.00" queueing_length="0.00" queueing_length_experimental="152.43"/>
            <lane id="end4_junction_1" queueing_time="0.00" queueing_length="0.00" queueing_length_experimental="163.16"/>
        </lanes>
    </data>
    <data timestep="83.00">
        <lanes>
            <lane id="end1_junction_2" queueing_time="0.00" queueing_length="0.00" queueing_length_experimental="163.83"/>
            <lane id="end2_junction_2" queueing_time="0.00" queueing_length="0.00" queueing_length_experimental="172.21"/>
            <lane id="end4_junction_1" queueing_time="0.00" queueing_length="0.00" queueing_length_experimental="162.70"/>
        </lanes>
    </data>
    <data timestep="83.50">
        <lanes>
            <lane id="end1_junction_2" queueing_time="0.00" queueing_length="0.00" queueing_length_experimental="163.35"/>
            <lane id="end2_junction_2" queueing_time="0.00" queueing_length="0.00" queueing_length_experimental="172.04"/>
            <lane id="end4_junction_1" queueing_time="0.00" queueing_length="0.00" queueing_length_experimental="162.26"/>
        </lanes>
    </data>
    <data timestep="84.00">
        <lanes>
            <lane id="end1_junction_2" queueing_time="0.00" queueing_length="0.00" queueing_length_experimental="186.94"/>
            <lane id="end2_junction_2" queueing_time="0.00" queueing_length="0.00" queueing_length_experimental="171.81"/>
        </lanes>
    </data>
    <data timestep="84.50">
        <lanes>
            <lane id="end1_junction_2" queueing_time="0.00" queueing_length="0.00" queueing_length_experimental="186.65"/>
            <lane id="end2_junction_2" queueing_time="0.00" queueing_length="0.00" queueing_length_experimental="171.34"/>
            <lane id="end4_junction_0" queueing_time="0.00" queueing_length="0.00" queueing_length_experimental="185.87"/>
        </lanes>
    </data>
    <data timestep="85.00">
        <lanes>
            <lane id="end1_junction_2" queueing_time="0.00" queueing_length="0.00" queueing_length_experimental="186.48"/>
            <lane id="end4_junction_0" queueing_time="0.00" queueing_length="0.00" queueing_length_experimental="185.62"/>
        </lanes>
    </data>
    <data timestep="85.50">
        <lanes>
            <lane id="end1_junction_2" queueing_time="0.00" queueing_length="0.00" queueing_length_experimental="195.94"/>
            <lane id="end4_junction_0" queueing_time="0.00" queueing_length="0.00" queueing_length_experimental="185.20"/>
        </lanes>
    </data>
    <data timestep="86.00">
        <lanes>
            <lane id="end1_junction_2" queueing_time="0.00" queueing_length="0.00" queueing_length_experimental="195.56"/>
        </lanes>
    </data>
    <data timestep="86.50">
        <lanes>
            <lane id="end1_junction_2" queueing_time="0.00" queueing_length="0.00" queueing_length_experimental="195.18"/>
        </lanes>
    </data>
    <data timestep="87.00">
        <lanes>
            <lane id="end1_junction_2" queueing_time="0.00" queueing_length="0.00" queueing_length_experimental="194.65"/>
        </lanes>
    </data>
    <data timestep="87.50">
        <lanes>
            <lane id="end2_junction_0" queueing_time="0.00" queueing_length="0.00" queueing_length_experimental="5.00"/>
        </lanes>
    </data>
    <data timestep="88.00">
        <lanes>
            <lane id="end1_junction_2" queueing_time="0.00" queueing_length="0.00" queueing_length_experimental="132.56"/>
            <lane id="end2_junction_1" queueing_time="0.00" queueing_length="0.00" queueing_length_experimental="5.00"/>
            <lane id="end3_junction_0" queueing_time="0.00" queueing_length="0.00" queueing_length_experimental="136.52"/>
        </lanes>
    </data>
    <data timestep="88.50">
        <lanes>
            <lane id="end1_junction_0" queueing_time="0.00" queueing_length="0.00" queueing_length_experimental="180.29"/>
            <lane id="end1_junction_1" queueing_time="0.00" queueing_length="0.00" queueing_length_experimental="149.05"/>
            <lane id="end3_junction_0" queueing_time="0.00" queueing_length="0.00" queueing_length_experimental="136.38"/>
            <lane id="end4_junction_0" queueing_time="0.00" queueing_length="0.00" queueing_length_experimental="148.49"/>
        </lanes>
    </data>
    <data timestep="89.00">
        <lanes>
            <lane id="end1_junction_0" queueing_time="0.00" queueing_length="0.00" queueing_length_experimental="180.13"/>
            <lane id="end1_junction_1" queueing_time="0.00" queueing_length="0.00" queueing_length_experimental="148.90"/>
            <lane id="end2_junction_0" queueing_time="0.00" queueing_length="0.00" queueing_length_experimental="166.60"/>
            <lane id="end2_junction_2" queueing_time="0.00" queueing_length="0.00" queueing_length_experimental="159.76"/>
            <lane id="end3_junction_0" queueing_time="0.50" queueing_length="136.38" queueing_length_experimental="136.38"/>
            <lane id="end4_junction_0" queueing_time="0.00" queueing_length="0.00" queueing_length_experimental="177.15"/>
        </lanes>
    </data>
    <data timestep="89.50">
        <lanes>
            <lane id="end1_junction_0" queueing_time="0.50" queueing_length="180.13" queueing_length_experimental="180.13"/>
            <lane id="end1_junction_1" queueing_time="0.50" queueing_length="148.90" queueing_length_experimental="148.90"/>
            <lane id="end2_junction_0" queueing_time="0.00" queueing_length="0.00" queueing_length_experimental="166.54"/>
            <lane id="end2_junction_1" queueing_time="0.50" queueing_length="159.71" queueing_length_experimental="159.71"/>
            <lane id="end3_junction_0" queueing_time="1.00" queueing_length="136.34" queueing_length_experimental="136.34"/>
            <lane id="end4_junction_0" queueing_time="0.50" queueing_length="148.38" queueing_length_experimental="176.88"/>
        </lanes>
    </data>
    <data timestep="90.00">
        <lanes>
            <lane id="end1_junction_0" queueing_time="1.00" queueing_length="180.13" queueing_length_experimental="180.13"/>
            <lane id="end1_junction_1" queueing_time="1.00" queueing_length="148.90" queueing_length_experimental="148.90"/>
            <lane id="end2_junction_0" queueing_time="0.50" queueing_length="166.54" queueing_length_experimental="166.54"/>
            <lane id="end2_junction_1" queueing_time="1.00" queueing_length="159.71" queueing_length_experimental="159.71"/>
            <lane id="end3_junction_0" queueing_time="0.00" queueing_length="0.00" queueing_length_experimental="136.05"/>
            <lane id="end4_junction_0" queueing_time="1.00" queueing_length="176.88" queueing_length_experimental="176.88"/>
        </lanes>
    </data>
    <data timestep="90.50">
        <lanes>
            <lane id="end1_junction_0" queueing_time="1.50" queueing_length="180.13" queueing_length_experimental="180.13"/>
            <lane id="end1_junction_1" queueing_time="0.00" queueing_length="0.00" queueing_length_experimental="148.77"/>
            <lane id="end2_junction_0" queueing_time="1.00" queueing_length="166.54" queueing_length_experimental="166.54"/>
            <lane id="end2_junction_1" queueing_time="1.50" queueing_length="159.71" queueing_length_experimental="159.71"/>
            <lane id="end3_junction_0" queueing_time="0.00" queueing_length="0.00" queueing_length_experimental="135.39"/>
            <lane id="end4_junction_0" queueing_time="1.00" queueing_length="176.88" queueing_length_experimental="176.88"/>
        </lanes>
    </data>
    <data timestep="91.00">
        <lanes>
            <lane id="end1_junction_0" queueing_time="2.00" queueing_length="180.13" queueing_length_experimental="180.13"/>
            <lane id="end1_junction_1" queueing_time="0.00" queueing_length="0.00" queueing_length_experimental="148.36"/>
            <lane id="end2_junction_0" queueing_time="1.50" queueing_length="166.54" queueing_length_experimental="166.54"/>
            <lane id="end2_junction_1" queueing_time="0.00" queueing_length="0.00" queueing_length_experimental="159.66"/>
            <lane id="end4_junction_0" queueing_time="1.50" queueing_length="176.88" queueing_length_experimental="176.88"/>
        </lanes>
    </data>
    <data timestep="91.50">
        <lanes>
            <lane id="end1_junction_0" queueing_time="2.50" queueing_length="180.13" queueing_length_experimental="180.13"/>
            <lane id="end2_junction_0" queueing_time="2.00" queueing_length="166.52" queueing_length_experimental="166.52"/>
            <lane id="end3_junction_0" queueing_time="0.00" queueing_length="0.00" queueing_length_experimental="169.55"/>
            <lane id="end4_junction_0" queueing_time="2.00" queueing_length="176.85" queueing_length_experimental="176.85"/>
        </lanes>
    </data>
    <data timestep="92.00">
        <lanes>
            <lane id="end1_junction_0" queueing_time="3.00" queueing_length="180.12" queueing_length_experimental="180.12"/>
            <lane id="end1_junction_1" queueing_time="0.00" queueing_length="0.00" queueing_length_experimental="182.47"/>
            <lane id="end2_junction_0" queueing_time="0.00" queueing_length="0.00" queueing_length_experimental="166.47"/>
            <lane id="end3_junction_0" queueing_time="0.50" queueing_length="169.54" queueing_length_experimental="169.54"/>
            <lane id="end4_junction_0" queueing_time="0.00" queueing_length="0.00" queueing_length_experimental="176.73"/>
        </lanes>
    </data>
    <data timestep="92.50">
        <lanes>
            <lane id="end1_junction_0" queueing_time="3.50" queueing_length="180.09" queueing_length_experimental="180.09"/>
            <lane id="end1_junction_1" queueing_time="0.00" queueing_length="0.00" queueing_length_experimental="182.39"/>
            <lane id="end2_junction_1" queueing_time="0.00" queueing_length="0.00" queueing_length_experimental="166.33"/>
            <lane id="end3_junction_0" queueing_time="1.00" queueing_length="169.54" queueing_length_experimental="169.54"/>
            <lane id="end4_junction_0" queueing_time="0.00" queueing_length="0.00" queueing_length_experimental="176.37"/>
        </lanes>
    </data>
    <data timestep="93.00">
        <lanes>
            <lane id="end1_junction_0" queueing_time="0.00" queueing_length="0.00" queueing_length_experimental="180.00"/>
            <lane id="end1_junction_1" queueing_time="0.50" queueing_length="182.39" queueing_length_experimental="182.39"/>
            <lane id="end2_junction_1" queueing_time="0.00" queueing_length="0.00" queueing_length_experimental="165.84"/>
            <lane id="end3_junction_0" queueing_time="1.50" queueing_length="169.53" queueing_length_experimental="169.53"/>
        </lanes>
    </data>
    <data timestep="93.50">
        <lanes>
            <lane id="end1_junction_0" queueing_time="0.00" queueing_length="0.00" queueing_length_experimental="179.71"/>
            <lane id="end1_junction_1" queueing_time="1.00" queueing_length="182.39" queueing_length_experimental="192.85"/>
            <lane id="end3_junction_0" queueing_time="2.00" queueing_length="169.49" queueing_length_experimental="169.49"/>
            <lane id="end3_junction_1" queueing_time="0.00" queueing_length="0.00" queueing_length_experimental="55.79"/>
        </lanes>
    </data>
    <data timestep="94.00">
        <lanes>
            <lane id="end1_junction_0" queueing_time="0.00" queueing_length="0.00" queueing_length_experimental="179.14"/>
            <lane id="end1_junction_1" queueing_time="1.50" queueing_length="182.37" queueing_length_experimental="192.59"/>
            <lane id="end3_junction_0" queueing_time="0.00" queueing_length="0.00" queueing_length_experimental="169.34"/>
            <lane id="end3_junction_1" queueing_time="0.00" queueing_length="0.00" queueing_length_experimental="55.19"/>
            <lane id="end4_junction_0" queueing_time="0.00" queueing_length="0.00" queueing_length_experimental="142.47"/>
        </lanes>
    </data>
    <data timestep="94.50">
        <lanes>
            <lane id="end1_junction_0" queueing_time="0.00" queueing_length="0.00" queueing_length_experimental="144.65"/>
            <lane id="end1_junction_1" queueing_time="0.00" queueing_length="0.00" queueing_length_experimental="192.48"/>
            <lane id="end2_junction_0" queueing_time="0.00" queueing_length="0.00" queueing_length_experimental="154.84"/>
            <lane id="end2_junction_1" queueing_time="0.00" queueing_length="0.00" queueing_length_experimental="163.54"/>
            <lane id="end2_junction_2" queueing_time="0.00" queueing_length="0.00" queueing_length_experimental="72.66"/>
            <lane id="end3_junction_0" queueing_time="0.00" queueing_length="0.00" queueing_length_experimental="168.99"/>
            <lane id="end4_junction_0" queueing_time="0.00" queueing_length="0.00" queueing_length_experimental="142.11"/>
        </lanes>
    </data>
    <data timestep="95.00">
        <lanes>
            <lane id="end1_junction_0" queueing_time="0.00" queueing_length="0.00" queueing_length_experimental="177.77"/>
            <lane id="end1_junction_1" queueing_time="0.50" queueing_length="192.44" queueing_length_experimental="192.44"/>
            <lane id="end2_junction_0" queueing_time="0.00" queueing_length="0.00" queueing_length_experimental="163.12"/>
            <lane id="end2_junction_1" queueing_time="0.00" queueing_length="0.00" queueing_length_experimental="95.43"/>
            <lane id="end2_junction_2" queueing_time="0.00" queueing_length="0.00" queueing_length_experimental="72.22"/>
            <lane id="end3_junction_0" queueing_time="0.00" queueing_length="0.00" queueing_length_experimental="168.54"/>
            <lane id="end3_junction_2" queueing_time="0.00" queueing_length="0.00" queueing_length_experimental="94.03"/>
            <lane id="end4_junction_0" queueing_time="0.00" queueing_length="0.00" queueing_length_experimental="172.70"/>
        </lanes>
    </data>
    <data timestep="95.50">
        <lanes>
            <lane id="end1_junction_0" queueing_time="0.00" queueing_length="0.00" queueing_length_experimental="177.34"/>
            <lane id="end1_junction_1" queueing_time="1.00" queueing_length="192.39" queueing_length_experimental="192.39"/>
            <lane id="end2_junction_0" queueing_time="0.00" queueing_length="0.00" queueing_length_experimental="162.89"/>
            <lane id="end2_junction_1" queueing_time="0.00" queueing_length="0.00" queueing_length_experimental="94.83"/>
            <lane id="end3_junction_0" queueing_time="0.00" queueing_length="0.00" queueing_length_experimental="168.15"/>
            <lane id="end3_junction_2" queueing_time="0.00" queueing_length="0.00" queueing_length_experimental="93.74"/>
            <lane id="end4_junction_0" queueing_time="0.00" queueing_length="0.00" queueing_length_experimental="172.46"/>
            <lane id="end4_junction_1" queueing_time="0.00" queueing_length="0.00" queueing_length_experimental="109.25"/>
        </lanes>
    </data>
    <data timestep="96.00">
        <lanes>
            <lane id="end1_junction_0" queueing_time="0.00" queueing_length="0.00" queueing_length_experimental="177.14"/>
            <lane id="end1_junction_1" queueing_time="0.00" queueing_length="0.00" queueing_length_experimental="192.29"/>
            <lane id="end2_junction_0" queueing_time="0.00" queueing_length="0.00" queueing_length_experimental="162.80"/>
            <lane id="end2_junction_1" queueing_time="0.00" queueing_length="0.00" queueing_length_experimental="94.17"/>
            <lane id="end3_junction_0" queueing_time="0.00" queueing_length="0.00" queueing_length_experimental="167.90"/>
            <lane id="end3_junction_2" queueing_time="0.00" queueing_length="0.00" queueing_length_experimental="93.37"/>
            <lane id="end4_junction_0" queueing_time="0.00" queueing_length="0.00" queueing_length_experimental="172.38"/>
            <lane id="end4_junction_1" queueing_time="0.00" queueing_length="0.00" queueing_length_experimental="109.05"/>
        </lanes>
    </data>
    <data timestep="96.50">
        <lanes>
            <lane id="end1_junction_0" queueing_time="0.50" queueing_length="177.12" queueing_length_experimental="177.12"/>
            <lane id="end1_junction_1" queueing_time="0.00" queueing_length="0.00" queueing_length_experimental="181.26"/>
            <lane id="end1_junction_2" queueing_time="0.00" queueing_length="0.00" queueing_length_experimental="192.10"/>
            <lane id="end2_junction_0" queueing_time="0.50" queueing_length="162.76" queueing_length_experimental="162.76"/>
            <lane id="end3_junction_0" queueing_time="0.00" queueing_length="0.00" queueing_length_experimental="167.81"/>
            <lane id="end4_junction_0" queueing_time="0.50" queueing_length="172.33" queueing_length_experimental="172.33"/>
            <lane id="end4_junction_1" queueing_time="0.00" queueing_length="0.00" queueing_length_experimental="108.91"/>
        </lanes>
    </data>
    <data timestep="97.00">
        <lanes>
            <lane id="end1_junction_0" queueing_time="1.00" queueing_length="177.12" queueing_length_experimental="177.12"/>
            <lane id="end1_junction_1" queueing_time="0.50" queueing_length="181.21" queueing_length_experimental="181.21"/>
            <lane id="end1_junction_2" queueing_time="0.00" queueing_length="0.00" queueing_length_experimental="191.51"/>
            <lane id="end2_junction_0" queueing_time="1.00" queueing_length="162.72" queueing_length_experimental="162.72"/>