<?xml version="1.0" encoding="UTF-8"?>

<!-- generated on 2021-12-10 14:09:39 by Eclipse SUMO GUI Version 1.10.0
<configuration xmlns:xsi="http://www.w3.org/2001/XMLSchema-instance" xsi:noNamespaceSchemaLocation="http://sumo.dlr.de/xsd/sumoConfiguration.xsd">

    <input>
        <net-file value="cfg/twoWay6lanes.net.xml"/>
        <route-files value="cfg/twoWay6lanes.rou.xml"/>
    </input>

    <output>
        <queue-output value="cfg/queues.xml"/>
        <tripinfo-output value="my_output_file.xml"/>
    </output>

    <time>
        <step-length value="0.5"/>
    </time>

    <report>
        <verbose value="true"/>
        <duration-log.statistics value="true"/>
    </report>

    <traci_server>
        <remote-port value="53731"/>
    </traci_server>

    <gui_only>
        <gui-settings-file value="cfg/twoWay6lanes.gui.xml"/>
        <start value="true"/>
        <tracker-interval value="0.5"/>
    </gui_only>

</configuration>
-->

<queue-export xmlns:xsi="http://www.w3.org/2001/XMLSchema-instance" xsi:noNamespaceSchemaLocation="http://sumo.dlr.de/xsd/queue_file.xsd">
    <data timestep="0.00">
        <lanes/>
    </data>
    <data timestep="0.50">
        <lanes/>
    </data>
    <data timestep="1.00">
        <lanes/>
    </data>
    <data timestep="1.50">
        <lanes/>
    </data>
    <data timestep="2.00">
        <lanes/>
    </data>
    <data timestep="2.50">
        <lanes/>
    </data>
    <data timestep="3.00">
        <lanes/>
    </data>
    <data timestep="3.50">
        <lanes/>
    </data>
    <data timestep="4.00">
        <lanes/>
    </data>
    <data timestep="4.50">
        <lanes/>
    </data>
    <data timestep="5.00">
        <lanes/>
    </data>
    <data timestep="5.50">
        <lanes/>
    </data>
    <data timestep="6.00">
        <lanes/>
    </data>
    <data timestep="6.50">
        <lanes/>
    </data>
    <data timestep="7.00">
        <lanes/>
    </data>
    <data timestep="7.50">
        <lanes/>
    </data>
    <data timestep="8.00">
        <lanes/>
    </data>
    <data timestep="8.50">
        <lanes/>
    </data>
    <data timestep="9.00">
        <lanes/>
    </data>
    <data timestep="9.50">
        <lanes/>
    </data>
    <data timestep="10.00">
        <lanes/>
    </data>
    <data timestep="10.50">
        <lanes/>
    </data>
    <data timestep="11.00">
        <lanes/>
    </data>
    <data timestep="11.50">
        <lanes/>
    </data>
    <data timestep="12.00">
        <lanes/>
    </data>
    <data timestep="12.50">
        <lanes/>
    </data>
    <data timestep="13.00">
        <lanes/>
    </data>
    <data timestep="13.50">
        <lanes/>
    </data>
    <data timestep="14.00">
        <lanes/>
    </data>
    <data timestep="14.50">
        <lanes/>
    </data>
    <data timestep="15.00">
        <lanes/>
    </data>
    <data timestep="15.50">
        <lanes/>
    </data>
    <data timestep="16.00">
        <lanes/>
    </data>
    <data timestep="16.50">
        <lanes/>
    </data>
    <data timestep="17.00">
        <lanes/>
    </data>
    <data timestep="17.50">
        <lanes/>
    </data>
    <data timestep="18.00">
        <lanes/>
    </data>
    <data timestep="18.50">
        <lanes/>
    </data>
    <data timestep="19.00">
        <lanes/>
    </data>
    <data timestep="19.50">
        <lanes/>
    </data>
    <data timestep="20.00">
        <lanes/>
    </data>
    <data timestep="20.50">
        <lanes/>
    </data>
    <data timestep="21.00">
        <lanes/>
    </data>
    <data timestep="21.50">
        <lanes/>
    </data>
    <data timestep="22.00">
        <lanes/>
    </data>
    <data timestep="22.50">
        <lanes/>
    </data>
    <data timestep="23.00">
        <lanes/>
    </data>
    <data timestep="23.50">
        <lanes/>
    </data>
    <data timestep="24.00">
        <lanes/>
    </data>
    <data timestep="24.50">
        <lanes/>
    </data>
    <data timestep="25.00">
        <lanes/>
    </data>
    <data timestep="25.50">
        <lanes/>
    </data>
    <data timestep="26.00">
        <lanes/>
    </data>
    <data timestep="26.50">
        <lanes/>
    </data>
    <data timestep="27.00">
        <lanes/>
    </data>
    <data timestep="27.50">
        <lanes/>
    </data>
    <data timestep="28.00">
        <lanes/>
    </data>
    <data timestep="28.50">
        <lanes/>
    </data>
    <data timestep="29.00">
        <lanes/>
    </data>
    <data timestep="29.50">
        <lanes/>
    </data>
    <data timestep="30.00">
        <lanes/>
    </data>
    <data timestep="30.50">
        <lanes/>
    </data>
    <data timestep="31.00">
        <lanes/>
    </data>
    <data timestep="31.50">
        <lanes/>
    </data>
    <data timestep="32.00">
        <lanes/>
    </data>
    <data timestep="32.50">
        <lanes/>
    </data>
    <data timestep="33.00">
        <lanes/>
    </data>
    <data timestep="33.50">
        <lanes/>
    </data>
    <data timestep="34.00">
        <lanes/>
    </data>
    <data timestep="34.50">
        <lanes/>
    </data>
    <data timestep="35.00">
        <lanes/>
    </data>
    <data timestep="35.50">
        <lanes/>
    </data>
    <data timestep="36.00">
        <lanes/>
    </data>
    <data timestep="36.50">
        <lanes/>
    </data>
    <data timestep="37.00">
        <lanes/>
    </data>
    <data timestep="37.50">
        <lanes/>
    </data>
    <data timestep="38.00">
        <lanes/>
    </data>
    <data timestep="38.50">
        <lanes/>
    </data>
    <data timestep="39.00">
        <lanes/>
    </data>
    <data timestep="39.50">
        <lanes/>
    </data>
    <data timestep="40.00">
        <lanes/>
    </data>
    <data timestep="40.50">
        <lanes/>
    </data>
    <data timestep="41.00">
        <lanes/>
    </data>
    <data timestep="41.50">
        <lanes/>
    </data>
    <data timestep="42.00">
        <lanes/>
    </data>
    <data timestep="42.50">
        <lanes/>
    </data>
    <data timestep="43.00">
        <lanes/>
    </data>
    <data timestep="43.50">
        <lanes/>
    </data>
    <data timestep="44.00">
        <lanes/>
    </data>
    <data timestep="44.50">
        <lanes/>
    </data>
    <data timestep="45.00">
        <lanes/>
    </data>
    <data timestep="45.50">
        <lanes/>
    </data>
    <data timestep="46.00">
        <lanes/>
    </data>
    <data timestep="46.50">
        <lanes/>
    </data>
    <data timestep="47.00">
        <lanes/>
    </data>
    <data timestep="47.50">
        <lanes/>
    </data>
    <data timestep="48.00">
        <lanes/>
    </data>
    <data timestep="48.50">
        <lanes/>
    </data>
    <data timestep="49.00">
        <lanes/>
    </data>
    <data timestep="49.50">
        <lanes/>
    </data>
    <data timestep="50.00">
        <lanes/>
    </data>
    <data timestep="50.50">
        <lanes/>
    </data>
    <data timestep="51.00">
        <lanes/>
    </data>
    <data timestep="51.50">
        <lanes/>
    </data>
    <data timestep="52.00">
        <lanes/>
    </data>
    <data timestep="52.50">
        <lanes/>
    </data>
    <data timestep="53.00">
        <lanes/>
    </data>
    <data timestep="53.50">
        <lanes/>
    </data>
    <data timestep="54.00">
        <lanes/>
    </data>
    <data timestep="54.50">
        <lanes/>
    </data>
    <data timestep="55.00">
        <lanes/>
    </data>
    <data timestep="55.50">
        <lanes/>
    </data>
    <data timestep="56.00">
        <lanes/>
    </data>
    <data timestep="56.50">
        <lanes/>
    </data>
    <data timestep="57.00">
        <lanes/>
    </data>
    <data timestep="57.50">
        <lanes/>
    </data>
    <data timestep="58.00">
        <lanes/>
    </data>
    <data timestep="58.50">
        <lanes/>
    </data>
    <data timestep="59.00">
        <lanes/>
    </data>
    <data timestep="59.50">
        <lanes/>
    </data>
    <data timestep="60.00">
        <lanes/>
    </data>
    <data timestep="60.50">
        <lanes/>
    </data>
    <data timestep="61.00">
        <lanes/>
    </data>
    <data timestep="61.50">
        <lanes/>
    </data>
    <data timestep="62.00">
        <lanes/>
    </data>
    <data timestep="62.50">
        <lanes/>
    </data>
    <data timestep="63.00">
        <lanes/>
    </data>
    <data timestep="63.50">
        <lanes/>
    </data>
    <data timestep="64.00">
        <lanes/>
    </data>
    <data timestep="64.50">
        <lanes/>
    </data>
    <data timestep="65.00">
        <lanes/>
    </data>
    <data timestep="65.50">
        <lanes/>
    </data>
    <data timestep="66.00">
        <lanes/>
    </data>
    <data timestep="66.50">
        <lanes/>
    </data>
    <data timestep="67.00">
        <lanes/>
    </data>
    <data timestep="67.50">
        <lanes/>
    </data>
    <data timestep="68.00">
        <lanes/>
    </data>
    <data timestep="68.50">
        <lanes/>
    </data>
    <data timestep="69.00">
        <lanes/>
    </data>
    <data timestep="69.50">
        <lanes/>
    </data>
    <data timestep="70.00">
        <lanes/>
    </data>
    <data timestep="70.50">
        <lanes/>
    </data>
    <data timestep="71.00">
        <lanes/>
    </data>
    <data timestep="71.50">
        <lanes/>
    </data>
    <data timestep="72.00">
        <lanes/>
    </data>
    <data timestep="72.50">
        <lanes/>
    </data>
    <data timestep="73.00">
        <lanes>
            <lane id="end3_junction_2" queueing_time="0.00" queueing_length="0.00" queueing_length_experimental="250.80"/>
        </lanes>
    </data>
    <data timestep="73.50">
        <lanes>
            <lane id="end3_junction_2" queueing_time="0.00" queueing_length="0.00" queueing_length_experimental="250.23"/>
        </lanes>
    </data>
    <data timestep="74.00">
        <lanes/>
    </data>
    <data timestep="74.50">
        <lanes/>
    </data>
    <data timestep="75.00">
        <lanes/>
    </data>
    <data timestep="75.50">
        <lanes/>
    </data>
    <data timestep="76.00">
        <lanes/>
    </data>
    <data timestep="76.50">
        <lanes/>
    </data>
    <data timestep="77.00">
        <lanes/>
    </data>
    <data timestep="77.50">
        <lanes/>
    </data>
    <data timestep="78.00">
        <lanes/>
    </data>
    <data timestep="78.50">
        <lanes/>
    </data>
    <data timestep="79.00">
        <lanes/>
    </data>
    <data timestep="79.50">
        <lanes/>
    </data>
    <data timestep="80.00">
        <lanes/>
    </data>
    <data timestep="80.50">
        <lanes/>
    </data>
    <data timestep="81.00">
        <lanes>
            <lane id="end1_junction_1" queueing_time="0.00" queueing_length="0.00" queueing_length_experimental="250.78"/>
        </lanes>
    </data>
    <data timestep="81.50">
        <lanes>
            <lane id="end1_junction_1" queueing_time="0.00" queueing_length="0.00" queueing_length_experimental="250.12"/>
            <lane id="end1_junction_2" queueing_time="0.00" queueing_length="0.00" queueing_length_experimental="259.60"/>
        </lanes>
    </data>
    <data timestep="82.00">
        <lanes>
            <lane id="end1_junction_2" queueing_time="0.00" queueing_length="0.00" queueing_length_experimental="259.18"/>
            <lane id="end2_junction_1" queueing_time="0.00" queueing_length="0.00" queueing_length_experimental="254.28"/>
        </lanes>
    </data>
    <data timestep="82.50">
        <lanes>
            <lane id="end1_junction_2" queueing_time="0.00" queueing_length="0.00" queueing_length_experimental="270.27"/>
            <lane id="end2_junction_1" queueing_time="0.00" queueing_length="0.00" queueing_length_experimental="253.95"/>
        </lanes>
    </data>
    <data timestep="83.00">
        <lanes>
            <lane id="end1_junction_2" queueing_time="0.00" queueing_length="0.00" queueing_length_experimental="269.96"/>
            <lane id="end2_junction_1" queueing_time="0.00" queueing_length="0.00" queueing_length_experimental="253.75"/>
            <lane id="end3_junction_1" queueing_time="0.00" queueing_length="0.00" queueing_length_experimental="282.79"/>
        </lanes>
    </data>
    <data timestep="83.50">
        <lanes>
            <lane id="end1_junction_1" queueing_time="0.00" queueing_length="0.00" queueing_length_experimental="274.14"/>
            <lane id="end1_junction_2" queueing_time="0.00" queueing_length="0.00" queueing_length_experimental="269.90"/>
            <lane id="end2_junction_1" queueing_time="0.00" queueing_length="0.00" queueing_length_experimental="253.40"/>
            <lane id="end3_junction_1" queueing_time="0.00" queueing_length="0.00" queueing_length_experimental="282.60"/>
            <lane id="end4_junction_2" queueing_time="0.00" queueing_length="0.00" queueing_length_experimental="261.78"/>
        </lanes>
    </data>
    <data timestep="84.00">
        <lanes>
            <lane id="end1_junction_1" queueing_time="0.00" queueing_length="0.00" queueing_length_experimental="273.91"/>
            <lane id="end1_junction_2" queueing_time="0.00" queueing_length="0.00" queueing_length_experimental="269.84"/>
            <lane id="end2_junction_1" queueing_time="0.00" queueing_length="0.00" queueing_length_experimental="252.73"/>
            <lane id="end2_junction_2" queueing_time="0.00" queueing_length="0.00" queueing_length_experimental="250.76"/>
            <lane id="end3_junction_1" queueing_time="0.50" queueing_length="282.60" queueing_length_experimental="282.60"/>
            <lane id="end4_junction_2" queueing_time="0.00" queueing_length="0.00" queueing_length_experimental="261.49"/>
        </lanes>
    </data>
    <data timestep="84.50">
        <lanes>
            <lane id="end1_junction_1" queueing_time="0.00" queueing_length="0.00" queueing_length_experimental="273.80"/>
            <lane id="end1_junction_2" queueing_time="0.00" queueing_length="0.00" queueing_length_experimental="269.68"/>
            <lane id="end3_junction_1" queueing_time="1.00" queueing_length="282.60" queueing_length_experimental="282.60"/>
            <lane id="end4_junction_2" queueing_time="0.00" queueing_length="0.00" queueing_length_experimental="261.24"/>
        </lanes>
    </data>
    <data timestep="85.00">
        <lanes>
            <lane id="end1_junction_1" queueing_time="0.00" queueing_length="0.00" queueing_length_experimental="273.70"/>
            <lane id="end1_junction_2" queueing_time="0.00" queueing_length="0.00" queueing_length_experimental="269.44"/>
            <lane id="end3_junction_1" queueing_time="0.00" queueing_length="0.00" queueing_length_experimental="298.64"/>
            <lane id="end4_junction_2" queueing_time="0.00" queueing_length="0.00" queueing_length_experimental="260.69"/>
        </lanes>
    </data>
    <data timestep="85.50">
        <lanes>
            <lane id="end1_junction_1" queueing_time="0.00" queueing_length="0.00" queueing_length_experimental="273.41"/>
            <lane id="end1_junction_2" queueing_time="0.00" queueing_length="0.00" queueing_length_experimental="269.05"/>
            <lane id="end3_junction_1" queueing_time="0.00" queueing_length="0.00" queueing_length_experimental="298.20"/>
        </lanes>
    </data>
    <data timestep="86.00">
        <lanes>
            <lane id="end1_junction_1" queueing_time="0.00" queueing_length="0.00" queueing_length_experimental="272.74"/>
            <lane id="end1_junction_2" queueing_time="0.00" queueing_length="0.00" queueing_length_experimental="268.36"/>
            <lane id="end2_junction_2" queueing_time="0.00" queueing_length="0.00" queueing_length_experimental="269.03"/>
            <lane id="end3_junction_1" queueing_time="0.00" queueing_length="0.00" queueing_length_experimental="297.85"/>
        </lanes>
    </data>
    <data timestep="86.50">
        <lanes>
            <lane id="end2_junction_2" queueing_time="0.00" queueing_length="0.00" queueing_length_experimental="268.82"/>
            <lane id="end3_junction_1" queueing_time="0.00" queueing_length="0.00" queueing_length_experimental="297.51"/>
        </lanes>
    </data>
    <data timestep="87.00">
        <lanes>
            <lane id="end2_junction_2" queueing_time="0.00" queueing_length="0.00" queueing_length_experimental="268.67"/>
            <lane id="end3_junction_1" queueing_time="0.00" queueing_length="0.00" queueing_length_experimental="310.99"/>
        </lanes>
    </data>
    <data timestep="87.50">
        <lanes>
            <lane id="end2_junction_2" queueing_time="0.00" queueing_length="0.00" queueing_length_experimental="268.30"/>
            <lane id="end3_junction_1" queueing_time="0.00" queueing_length="0.00" queueing_length_experimental="310.44"/>
        </lanes>
    </data>
    <data timestep="88.00">
        <lanes>
            <lane id="end3_junction_1" queueing_time="0.00" queueing_length="0.00" queueing_length_experimental="309.92"/>
        </lanes>
    </data>
    <data timestep="88.50">
        <lanes>
            <lane id="end3_junction_1" queueing_time="0.00" queueing_length="0.00" queueing_length_experimental="309.33"/>
        </lanes>
    </data>
    <data timestep="89.00">
        <lanes>
            <lane id="end3_junction_1" queueing_time="0.00" queueing_length="0.00" queueing_length_experimental="321.22"/>
        </lanes>
    </data>
    <data timestep="89.50">
        <lanes>
            <lane id="end1_junction_2" queueing_time="0.00" queueing_length="0.00" queueing_length_experimental="261.05"/>
            <lane id="end2_junction_1" queueing_time="0.00" queueing_length="0.00" queueing_length_experimental="275.80"/>
            <lane id="end3_junction_1" queueing_time="0.00" queueing_length="0.00" queueing_length_experimental="320.60"/>
        </lanes>
    </data>
    <data timestep="90.00">
        <lanes>
            <lane id="end2_junction_1" queueing_time="0.00" queueing_length="0.00" queueing_length_experimental="275.32"/>
            <lane id="end2_junction_2" queueing_time="0.00" queueing_length="0.00" queueing_length_experimental="263.74"/>
            <lane id="end3_junction_1" queueing_time="0.00" queueing_length="0.00" queueing_length_experimental="319.93"/>
        </lanes>
    </data>
    <data timestep="90.50">
        <lanes>
            <lane id="end2_junction_1" queueing_time="0.00" queueing_length="0.00" queueing_length_experimental="274.90"/>
            <lane id="end2_junction_2" queueing_time="0.00" queueing_length="0.00" queueing_length_experimental="263.31"/>
            <lane id="end3_junction_1" queueing_time="0.00" queueing_length="0.00" queueing_length_experimental="273.92"/>
        </lanes>
    </data>
    <data timestep="91.00">
        <lanes>
            <lane id="end2_junction_1" queueing_time="0.00" queueing_length="0.00" queueing_length_experimental="274.53"/>
            <lane id="end2_junction_2" queueing_time="0.00" queueing_length="0.00" queueing_length_experimental="263.03"/>
            <lane id="end3_junction_1" queueing_time="0.00" queueing_length="0.00" queueing_length_experimental="273.36"/>
        </lanes>
    </data>
    <data timestep="91.50">
        <lanes>
            <lane id="end1_junction_1" queueing_time="0.00" queueing_length="0.00" queueing_length_experimental="283.15"/>
            <lane id="end2_junction_1" queueing_time="0.00" queueing_length="0.00" queueing_length_experimental="274.13"/>
            <lane id="end2_junction_2" queueing_time="0.00" queueing_length="0.00" queueing_length_experimental="262.75"/>
        </lanes>
    </data>
    <data timestep="92.00">
        <lanes>
            <lane id="end1_junction_1" queueing_time="0.00" queueing_length="0.00" queueing_length_experimental="282.81"/>
            <lane id="end2_junction_1" queueing_time="0.00" queueing_length="0.00" queueing_length_experimental="273.61"/>
            <lane id="end2_junction_2" queueing_time="0.00" queueing_length="0.00" queueing_length_experimental="262.32"/>
        </lanes>
    </data>
    <data timestep="92.50">
        <lanes>
            <lane id="end1_junction_1" queueing_time="0.00" queueing_length="0.00" queueing_length_experimental="282.58"/>
            <lane id="end2_junction_2" queueing_time="0.00" queueing_length="0.00" queueing_length_experimental="261.67"/>
        </lanes>
    </data>
    <data timestep="93.00">
        <lanes>
            <lane id="end1_junction_1" queueing_time="0.00" queueing_length="0.00" queueing_length_experimental="282.20"/>
        </lanes>
    </data>
    <data timestep="93.50">
        <lanes>
            <lane id="end1_junction_1" queueing_time="0.00" queueing_length="0.00" queueing_length_experimental="281.55"/>
        </lanes>
    </data>
    <data timestep="94.00">
        <lanes>
            <lane id="end4_junction_1" queueing_time="0.00" queueing_length="0.00" queueing_length_experimental="250.79"/>
        </lanes>
    </data>
    <data timestep="94.50">
        <lanes>
            <lane id="end4_junction_1" queueing_time="0.00" queueing_length="0.00" queueing_length_experimental="250.20"/>
        </lanes>
    </data>
    <data timestep="95.00">
        <lanes>
            <lane id="end3_junction_1" queueing_time="0.00" queueing_length="0.00" queueing_length_experimental="281.98"/>
            <lane id="end4_junction_1" queueing_time="0.00" queueing_length="0.00" queueing_length_experimental="249.55"/>
        </lanes>
    </data>
    <data timestep="95.50">
        <lanes>
            <lane id="end1_junction_1" queueing_time="0.00" queueing_length="0.00" queueing_length_experimental="278.47"/>
            <lane id="end3_junction_1" queueing_time="0.00" queueing_length="0.00" queueing_length_experimental="281.38"/>
            <lane id="end4_junction_1" queueing_time="0.00" queueing_length="0.00" queueing_length_experimental="248.88"/>
        </lanes>
    </data>
    <data timestep="96.00">
        <lanes>
            <lane id="end1_junction_1" queueing_time="0.00" queueing_length="0.00" queueing_length_experimental="277.90"/>
            <lane id="end2_junction_1" queueing_time="0.00" queueing_length="0.00" queueing_length_experimental="266.56"/>
            <lane id="end2_junction_2" queueing_time="0.00" queueing_length="0.00" queueing_length_experimental="255.70"/>
            <lane id="end3_junction_1" queueing_time="0.00" queueing_length="0.00" queueing_length_experimental="280.77"/>
            <lane id="end4_junction_1" queueing_time="0.00" queueing_length="0.00" queueing_length_experimental="248.24"/>
        </lanes>
    </data>
    <data timestep="96.50">
        <lanes>
            <lane id="end1_junction_1" queueing_time="0.00" queueing_length="0.00" queueing_length_experimental="277.34"/>
            <lane id="end2_junction_1" queueing_time="0.00" queueing_length="0.00" queueing_length_experimental="265.90"/>
            <lane id="end2_junction_2" queueing_time="0.00" queueing_length="0.00" queueing_length_experimental="255.08"/>
            <lane id="end3_junction_1" queueing_time="0.00" queueing_length="0.00" queueing_length_experimental="280.17"/>
            <lane id="end4_junction_1" queueing_time="0.00" queueing_length="0.00" queueing_length_experimental="274.15"/>
        </lanes>
    </data>
    <data timestep="97.00">
        <lanes>
            <lane id="end1_junction_1" queueing_time="0.00" queueing_length="0.00" queueing_length_experimental="276.80"/>
            <lane id="end3_junction_1" queueing_time="0.00" queueing_length="0.00" queueing_length_experimental="291.94"/>
            <lane id="end4_junction_1" queueing_time="0.00" queueing_length="0.00" queueing_length_experimental="273.85"/>
        </lanes>
    </data>
    <data timestep="97.50">
        <lanes>
            <lane id="end1_junction_1" queueing_time="0.00" queueing_length="0.00" queueing_length_experimental="276.32"/>
            <lane id="end3_junction_1" queueing_time="0.00" queueing_length="0.00" queueing_length_experimental="291.28"/>
            <lane id="end4_junction_1" queueing_time="0.00" queueing_length="0.00" queueing_length_experimental="273.59"/>
        </lanes>
    </data>
    <data timestep="98.00">
        <lanes>
            <lane id="end1_junction_1" queueing_time="0.00" queueing_length="0.00" queueing_length_experimental="275.87"/>
            <lane id="end3_junction_1" queueing_time="0.00" queueing_length="0.00" queueing_length_experimental="290.64"/>
            <lane id="end4_junction_1" queueing_time="0.00" queueing_length="0.00" queueing_length_experimental="273.27"/>
        </lanes>
    </data>
    <data timestep="98.50">
        <lanes>
            <lane id="end1_junction_1" queueing_time="0.00" queueing_length="0.00" queueing_length_experimental="275.38"/>
            <lane id="end3_junction_1" queueing_time="0.00" queueing_length="0.00" queueing_length_experimental="290.04"/>
            <lane id="end4_junction_1" queueing_time="0.00" queueing_length="0.00" queueing_length_experimental="286.61"/>
        </lanes>
    </data>
    <data timestep="99.00">
        <lanes>
            <lane id="end1_junction_1" queueing_time="0.00" queueing_length="0.00" queueing_length_experimental="274.72"/>
            <lane id="end3_junction_1" queueing_time="0.00" queueing_length="0.00" queueing_length_experimental="301.11"/>
            <lane id="end4_junction_1" queueing_time="0.00" queueing_length="0.00" queueing_length_experimental="286.18"/>
        </lanes>
    </data>
    <data timestep="99.50">
        <lanes>
            <lane id="end3_junction_1" queueing_time="0.00" queueing_length="0.00" queueing_length_experimental="300.46"/>
            <lane id="end4_junction_1" queueing_time="0.00" queueing_length="0.00" queueing_length_experimental="285.77"/>
            <lane id="end4_junction_2" queueing_time="0.00" queueing_length="0.00" queueing_length_experimental="272.42"/>
        </lanes>
    </data>
    <data timestep="100.00">
        <lanes>
            <lane id="end3_junction_1" queueing_time="0.00" queueing_length="0.00" queueing_length_experimental="299.82"/>
            <lane id="end4_junction_1" queueing_time="0.00" queueing_length="0.00" queueing_length_experimental="285.33"/>
            <lane id="end4_junction_2" queueing_time="0.00" queueing_length="0.00" queueing_length_experimental="271.96"/>
        </lanes>
    </data>
    <data timestep="100.50">
        <lanes>
            <lane id="end3_junction_1" queueing_time="0.00" queueing_length="0.00" queueing_length_experimental="299.19"/>
            <lane id="end4_junction_1" queueing_time="0.00" queueing_length="0.00" queueing_length_experimental="284.81"/>
            <lane id="end4_junction_2" queueing_time="0.00" queueing_length="0.00" queueing_length_experimental="271.34"/>
        </lanes>
    </data>
    <data timestep="101.00">
        <lanes>
            <lane id="end3_junction_1" queueing_time="0.00" queueing_length="0.00" queueing_length_experimental="298.53"/>
            <lane id="end3_junction_2" queueing_time="0.00" queueing_length="0.00" queueing_length_experimental="250.88"/>
            <lane id="end4_junction_1" queueing_time="0.00" queueing_length="0.00" queueing_length_experimental="284.17"/>
        </lanes>
    </data>
    <data timestep="101.50">
        <lanes>
            <lane id="end1_junction_1" queueing_time="0.00" queueing_length="0.00" queueing_length_experimental="270.38"/>
            <lane id="end2_junction_2" queueing_time="0.00" queueing_length="0.00" queueing_length_experimental="279.05"/>
            <lane id="end3_junction_1" queueing_time="0.00" queueing_length="0.00" queueing_length_experimental="273.12"/>
            <lane id="end3_junction_2" queueing_time="0.00" queueing_length="0.00" queueing_length_experimental="250.51"/>
            <lane id="end4_junction_1" queueing_time="0.00" queueing_length="0.00" queueing_length_experimental="283.52"/>
        </lanes>
    </data>
    <data timestep="102.00">
        <lanes>
            <lane id="end1_junction_1" queueing_time="0.00" queueing_length="0.00" queueing_length_experimental="269.86"/>
            <lane id="end2_junction_2" queueing_time="0.00" queueing_length="0.00" queueing_length_experimental="278.76"/>
            <lane id="end3_junction_1" queueing_time="0.00" queueing_length="0.00" queueing_length_experimental="272.59"/>
            <lane id="end3_junction_2" queueing_time="0.00" queueing_length="0.00" queueing_length_experimental="250.19"/>
            <lane id="end4_junction_1" queueing_time="0.00" queueing_length="0.00" queueing_length_experimental="283.00"/>
            <lane id="end4_junction_2" queueing_time="0.00" queueing_length="0.00" queueing_length_experimental="269.30"/>
        </lanes>
    </data>
    <data timestep="102.50">
        <lanes>
            <lane id="end1_junction_1" queueing_time="0.00" queueing_length="0.00" queueing_length_experimental="269.24"/>
            <lane id="end2_junction_2" queueing_time="0.00" queueing_length="0.00" queueing_length_experimental="278.61"/>
            <lane id="end3_junction_1" queueing_time="0.00" queueing_length="0.00" queueing_length_experimental="284.38"/>
            <lane id="end3_junction_2" queueing_time="0.00" queueing_length="0.00" queueing_length_experimental="249.86"/>
            <lane id="end4_junction_1" queueing_time="0.00" queueing_length="0.00" queueing_length_experimental="282.69"/>
            <lane id="end4_junction_2" queueing_time="0.00" queueing_length="0.00" queueing_length_experimental="269.01"/>
        </lanes>
    </data>
    <data timestep="103.00">
        <lanes>
            <lane id="end2_junction_2" queueing_time="0.00" queueing_length="0.00" queueing_length_experimental="278.44"/>
            <lane id="end3_junction_1" queueing_time="0.00" queueing_length="0.00" queueing_length_experimental="284.20"/>
            <lane id="end3_junction_2" queueing_time="0.00" queueing_length="0.00" queueing_length_experimental="249.53"/>