<?xml version="1.0" encoding="UTF-8"?>

<!-- generated on 2021-12-09 21:27:10 by Eclipse SUMO GUI Version 1.10.0
<configuration xmlns:xsi="http://www.w3.org/2001/XMLSchema-instance" xsi:noNamespaceSchemaLocation="http://sumo.dlr.de/xsd/sumoConfiguration.xsd">

    <input>
        <net-file value="cfg/twoWay6lanes.net.xml"/>
        <route-files value="cfg/twoWay6lanes.rou.xml"/>
    </input>

    <output>
        <queue-output value="cfg/queues.xml"/>
        <tripinfo-output value="my_output_file.xml"/>
    </output>

    <time>
        <step-length value="0.5"/>
    </time>

    <report>
        <verbose value="true"/>
        <duration-log.statistics value="true"/>
    </report>

    <traci_server>
        <remote-port value="56899"/>
    </traci_server>

    <gui_only>
        <gui-settings-file value="cfg/twoWay6lanes.gui.xml"/>
        <start value="true"/>
        <tracker-interval value="0.5"/>
    </gui_only>

</configuration>
-->

<queue-export xmlns:xsi="http://www.w3.org/2001/XMLSchema-instance" xsi:noNamespaceSchemaLocation="http://sumo.dlr.de/xsd/queue_file.xsd">
    <data timestep="0.00">
        <lanes/>
    </data>
    <data timestep="0.50">
        <lanes/>
    </data>
    <data timestep="1.00">
        <lanes/>
    </data>
    <data timestep="1.50">
        <lanes/>
    </data>
    <data timestep="2.00">
        <lanes/>
    </data>
    <data timestep="2.50">
        <lanes/>
    </data>
    <data timestep="3.00">
        <lanes/>
    </data>
    <data timestep="3.50">
        <lanes/>
    </data>
    <data timestep="4.00">
        <lanes/>
    </data>
    <data timestep="4.50">
        <lanes/>
    </data>
    <data timestep="5.00">
        <lanes/>
    </data>
    <data timestep="5.50">
        <lanes/>
    </data>
    <data timestep="6.00">
        <lanes/>
    </data>
    <data timestep="6.50">
        <lanes/>
    </data>
    <data timestep="7.00">
        <lanes/>
    </data>
    <data timestep="7.50">
        <lanes/>
    </data>
    <data timestep="8.00">
        <lanes/>
    </data>
    <data timestep="8.50">
        <lanes/>
    </data>
    <data timestep="9.00">
        <lanes/>
    </data>
    <data timestep="9.50">
        <lanes/>
    </data>
    <data timestep="10.00">
        <lanes/>
    </data>
    <data timestep="10.50">
        <lanes/>
    </data>
    <data timestep="11.00">
        <lanes/>
    </data>
    <data timestep="11.50">
        <lanes/>
    </data>
    <data timestep="12.00">
        <lanes/>
    </data>
    <data timestep="12.50">
        <lanes/>
    </data>
    <data timestep="13.00">
        <lanes/>
    </data>
    <data timestep="13.50">
        <lanes/>
    </data>
    <data timestep="14.00">
        <lanes/>
    </data>
    <data timestep="14.50">
        <lanes/>
    </data>
    <data timestep="15.00">
        <lanes/>
    </data>
    <data timestep="15.50">
        <lanes/>
    </data>
    <data timestep="16.00">
        <lanes/>
    </data>
    <data timestep="16.50">
        <lanes/>
    </data>
    <data timestep="17.00">
        <lanes/>
    </data>
    <data timestep="17.50">
        <lanes/>
    </data>
    <data timestep="18.00">
        <lanes/>
    </data>
    <data timestep="18.50">
        <lanes/>
    </data>
    <data timestep="19.00">
        <lanes/>
    </data>
    <data timestep="19.50">
        <lanes/>
    </data>
    <data timestep="20.00">
        <lanes/>
    </data>
    <data timestep="20.50">
        <lanes/>
    </data>
    <data timestep="21.00">
        <lanes/>
    </data>
    <data timestep="21.50">
        <lanes/>
    </data>
    <data timestep="22.00">
        <lanes/>
    </data>
    <data timestep="22.50">
        <lanes/>
    </data>
    <data timestep="23.00">
        <lanes/>
    </data>
    <data timestep="23.50">
        <lanes/>
    </data>
    <data timestep="24.00">
        <lanes/>
    </data>
    <data timestep="24.50">
        <lanes/>
    </data>
    <data timestep="25.00">
        <lanes/>
    </data>
    <data timestep="25.50">
        <lanes/>
    </data>
    <data timestep="26.00">
        <lanes/>
    </data>
    <data timestep="26.50">
        <lanes/>
    </data>
    <data timestep="27.00">
        <lanes/>
    </data>
    <data timestep="27.50">
        <lanes/>
    </data>
    <data timestep="28.00">
        <lanes/>
    </data>
    <data timestep="28.50">
        <lanes/>
    </data>
    <data timestep="29.00">
        <lanes/>
    </data>
    <data timestep="29.50">
        <lanes/>
    </data>
    <data timestep="30.00">
        <lanes/>
    </data>
    <data timestep="30.50">
        <lanes/>
    </data>
    <data timestep="31.00">
        <lanes/>
    </data>
    <data timestep="31.50">
        <lanes/>
    </data>
    <data timestep="32.00">
        <lanes/>
    </data>
    <data timestep="32.50">
        <lanes/>
    </data>
    <data timestep="33.00">
        <lanes/>
    </data>
    <data timestep="33.50">
        <lanes/>
    </data>
    <data timestep="34.00">
        <lanes/>
    </data>
    <data timestep="34.50">
        <lanes/>
    </data>
    <data timestep="35.00">
        <lanes/>
    </data>
    <data timestep="35.50">
        <lanes/>
    </data>
    <data timestep="36.00">
        <lanes/>
    </data>
    <data timestep="36.50">
        <lanes/>
    </data>
    <data timestep="37.00">
        <lanes/>
    </data>
    <data timestep="37.50">
        <lanes/>
    </data>
    <data timestep="38.00">
        <lanes/>
    </data>
    <data timestep="38.50">
        <lanes/>
    </data>
    <data timestep="39.00">
        <lanes/>
    </data>
    <data timestep="39.50">
        <lanes/>
    </data>
    <data timestep="40.00">
        <lanes/>
    </data>
    <data timestep="40.50">
        <lanes/>
    </data>
    <data timestep="41.00">
        <lanes/>
    </data>
    <data timestep="41.50">
        <lanes/>
    </data>
    <data timestep="42.00">
        <lanes/>
    </data>
    <data timestep="42.50">
        <lanes/>
    </data>
    <data timestep="43.00">
        <lanes/>
    </data>
    <data timestep="43.50">
        <lanes/>
    </data>
    <data timestep="44.00">
        <lanes/>
    </data>
    <data timestep="44.50">
        <lanes/>
    </data>
    <data timestep="45.00">
        <lanes/>
    </data>
    <data timestep="45.50">
        <lanes/>
    </data>
    <data timestep="46.00">
        <lanes/>
    </data>
    <data timestep="46.50">
        <lanes/>
    </data>
    <data timestep="47.00">
        <lanes/>
    </data>
    <data timestep="47.50">
        <lanes/>
    </data>
    <data timestep="48.00">
        <lanes/>
    </data>
    <data timestep="48.50">
        <lanes/>
    </data>
    <data timestep="49.00">
        <lanes/>
    </data>
    <data timestep="49.50">
        <lanes/>
    </data>
    <data timestep="50.00">
        <lanes/>
    </data>
    <data timestep="50.50">
        <lanes/>
    </data>
    <data timestep="51.00">
        <lanes/>
    </data>
    <data timestep="51.50">
        <lanes/>
    </data>
    <data timestep="52.00">
        <lanes/>
    </data>
    <data timestep="52.50">
        <lanes/>
    </data>
    <data timestep="53.00">
        <lanes/>
    </data>
    <data timestep="53.50">
        <lanes/>
    </data>
    <data timestep="54.00">
        <lanes/>
    </data>
    <data timestep="54.50">
        <lanes/>
    </data>
    <data timestep="55.00">
        <lanes/>
    </data>
    <data timestep="55.50">
        <lanes/>
    </data>
    <data timestep="56.00">
        <lanes/>
    </data>
    <data timestep="56.50">
        <lanes/>
    </data>
    <data timestep="57.00">
        <lanes/>
    </data>
    <data timestep="57.50">
        <lanes/>
    </data>
    <data timestep="58.00">
        <lanes/>
    </data>
    <data timestep="58.50">
        <lanes/>
    </data>
    <data timestep="59.00">
        <lanes/>
    </data>
    <data timestep="59.50">
        <lanes/>
    </data>
    <data timestep="60.00">
        <lanes/>
    </data>
    <data timestep="60.50">
        <lanes/>
    </data>
    <data timestep="61.00">
        <lanes/>
    </data>
    <data timestep="61.50">
        <lanes/>
    </data>
    <data timestep="62.00">
        <lanes/>
    </data>
    <data timestep="62.50">
        <lanes/>
    </data>
    <data timestep="63.00">
        <lanes/>
    </data>
    <data timestep="63.50">
        <lanes/>
    </data>
    <data timestep="64.00">
        <lanes/>
    </data>
    <data timestep="64.50">
        <lanes/>
    </data>
    <data timestep="65.00">
        <lanes/>
    </data>
    <data timestep="65.50">
        <lanes/>
    </data>
    <data timestep="66.00">
        <lanes/>
    </data>
    <data timestep="66.50">
        <lanes/>
    </data>
    <data timestep="67.00">
        <lanes/>
    </data>
    <data timestep="67.50">
        <lanes/>
    </data>
    <data timestep="68.00">
        <lanes/>
    </data>
    <data timestep="68.50">
        <lanes/>
    </data>
    <data timestep="69.00">
        <lanes/>
    </data>
    <data timestep="69.50">
        <lanes/>
    </data>
    <data timestep="70.00">
        <lanes/>
    </data>
    <data timestep="70.50">
        <lanes/>
    </data>
    <data timestep="71.00">
        <lanes/>
    </data>
    <data timestep="71.50">
        <lanes/>
    </data>
    <data timestep="72.00">
        <lanes/>
    </data>
    <data timestep="72.50">
        <lanes/>
    </data>
    <data timestep="73.00">
        <lanes/>
    </data>
    <data timestep="73.50">
        <lanes/>
    </data>
    <data timestep="74.00">
        <lanes/>
    </data>
    <data timestep="74.50">
        <lanes/>
    </data>
    <data timestep="75.00">
        <lanes/>
    </data>
    <data timestep="75.50">
        <lanes/>
    </data>
    <data timestep="76.00">
        <lanes/>
    </data>
    <data timestep="76.50">
        <lanes/>
    </data>
    <data timestep="77.00">
        <lanes/>
    </data>
    <data timestep="77.50">
        <lanes/>
    </data>
    <data timestep="78.00">
        <lanes/>
    </data>
    <data timestep="78.50">
        <lanes/>
    </data>
    <data timestep="79.00">
        <lanes/>
    </data>
    <data timestep="79.50">
        <lanes/>
    </data>
    <data timestep="80.00">
        <lanes/>
    </data>
    <data timestep="80.50">
        <lanes/>
    </data>
    <data timestep="81.00">
        <lanes/>
    </data>
    <data timestep="81.50">
        <lanes/>
    </data>
    <data timestep="82.00">
        <lanes/>
    </data>
    <data timestep="82.50">
        <lanes/>
    </data>
    <data timestep="83.00">
        <lanes/>
    </data>
    <data timestep="83.50">
        <lanes/>
    </data>
    <data timestep="84.00">
        <lanes/>
    </data>
    <data timestep="84.50">
        <lanes/>
    </data>
    <data timestep="85.00">
        <lanes/>
    </data>
    <data timestep="85.50">
        <lanes/>
    </data>
    <data timestep="86.00">
        <lanes/>
    </data>
    <data timestep="86.50">
        <lanes/>
    </data>
    <data timestep="87.00">
        <lanes/>
    </data>
    <data timestep="87.50">
        <lanes/>
    </data>
    <data timestep="88.00">
        <lanes/>
    </data>
    <data timestep="88.50">
        <lanes/>
    </data>
    <data timestep="89.00">
        <lanes/>
    </data>
    <data timestep="89.50">
        <lanes/>
    </data>
    <data timestep="90.00">
        <lanes/>
    </data>
    <data timestep="90.50">
        <lanes/>
    </data>
    <data timestep="91.00">
        <lanes/>
    </data>
    <data timestep="91.50">
        <lanes/>
    </data>
    <data timestep="92.00">
        <lanes/>
    </data>
    <data timestep="92.50">
        <lanes/>
    </data>
    <data timestep="93.00">
        <lanes/>
    </data>
    <data timestep="93.50">
        <lanes/>
    </data>
    <data timestep="94.00">
        <lanes/>
    </data>
    <data timestep="94.50">
        <lanes/>
    </data>
    <data timestep="95.00">
        <lanes/>
    </data>
    <data timestep="95.50">
        <lanes/>
    </data>
    <data timestep="96.00">
        <lanes/>
    </data>
    <data timestep="96.50">
        <lanes/>
    </data>
    <data timestep="97.00">
        <lanes/>
    </data>
    <data timestep="97.50">
        <lanes/>
    </data>
    <data timestep="98.00">
        <lanes/>
    </data>
    <data timestep="98.50">
        <lanes/>
    </data>
    <data timestep="99.00">
        <lanes/>
    </data>
    <data timestep="99.50">
        <lanes/>
    </data>
    <data timestep="100.00">
        <lanes/>
    </data>
    <data timestep="100.50">
        <lanes/>
    </data>
    <data timestep="101.00">
        <lanes/>
    </data>
    <data timestep="101.50">
        <lanes/>
    </data>
    <data timestep="102.00">
        <lanes/>
    </data>
    <data timestep="102.50">
        <lanes/>
    </data>
    <data timestep="103.00">
        <lanes/>
    </data>
    <data timestep="103.50">
        <lanes/>
    </data>
    <data timestep="104.00">
        <lanes/>
    </data>
    <data timestep="104.50">
        <lanes/>
    </data>
    <data timestep="105.00">
        <lanes/>
    </data>
    <data timestep="105.50">
        <lanes/>
    </data>
    <data timestep="106.00">
        <lanes/>
    </data>
    <data timestep="106.50">
        <lanes/>
    </data>
    <data timestep="107.00">
        <lanes/>
    </data>
    <data timestep="107.50">
        <lanes/>
    </data>
    <data timestep="108.00">
        <lanes/>
    </data>
    <data timestep="108.50">
        <lanes/>
    </data>
    <data timestep="109.00">
        <lanes/>
    </data>
    <data timestep="109.50">
        <lanes/>
    </data>
    <data timestep="110.00">
        <lanes/>
    </data>
    <data timestep="110.50">
        <lanes/>
    </data>
    <data timestep="111.00">
        <lanes/>
    </data>
    <data timestep="111.50">
        <lanes/>
    </data>
    <data timestep="112.00">
        <lanes/>
    </data>
    <data timestep="112.50">
        <lanes/>
    </data>
    <data timestep="113.00">
        <lanes/>
    </data>
    <data timestep="113.50">
        <lanes/>
    </data>
    <data timestep="114.00">
        <lanes/>
    </data>
    <data timestep="114.50">
        <lanes/>
    </data>
    <data timestep="115.00">
        <lanes/>
    </data>
    <data timestep="115.50">
        <lanes/>
    </data>
    <data timestep="116.00">
        <lanes/>
    </data>
    <data timestep="116.50">
        <lanes/>
    </data>
    <data timestep="117.00">
        <lanes/>
    </data>
    <data timestep="117.50">
        <lanes/>
    </data>
    <data timestep="118.00">
        <lanes/>
    </data>
    <data timestep="118.50">
        <lanes/>
    </data>
    <data timestep="119.00">
        <lanes/>
    </data>
    <data timestep="119.50">
        <lanes/>
    </data>
    <data timestep="120.00">
        <lanes/>
    </data>
    <data timestep="120.50">
        <lanes/>
    </data>
    <data timestep="121.00">
        <lanes/>
    </data>
    <data timestep="121.50">
        <lanes/>
    </data>
    <data timestep="122.00">
        <lanes/>
    </data>
    <data timestep="122.50">
        <lanes/>
    </data>
    <data timestep="123.00">
        <lanes/>
    </data>
    <data timestep="123.50">
        <lanes/>
    </data>
    <data timestep="124.00">
        <lanes/>
    </data>
    <data timestep="124.50">
        <lanes/>
    </data>
    <data timestep="125.00">
        <lanes/>
    </data>
    <data timestep="125.50">
        <lanes/>
    </data>
    <data timestep="126.00">
        <lanes/>
    </data>
    <data timestep="126.50">
        <lanes/>
    </data>
    <data timestep="127.00">
        <lanes/>
    </data>
    <data timestep="127.50">
        <lanes/>
    </data>
    <data timestep="128.00">
        <lanes/>
    </data>
    <data timestep="128.50">
        <lanes/>
    </data>
    <data timestep="129.00">
        <lanes/>
    </data>
    <data timestep="129.50">
        <lanes/>
    </data>
    <data timestep="130.00">
        <lanes/>
    </data>
    <data timestep="130.50">
        <lanes/>
    </data>
    <data timestep="131.00">
        <lanes/>
    </data>
    <data timestep="131.50">
        <lanes/>
    </data>
    <data timestep="132.00">
        <lanes/>
    </data>
    <data timestep="132.50">
        <lanes/>
    </data>
    <data timestep="133.00">
        <lanes/>
    </data>
    <data timestep="133.50">
        <lanes/>
    </data>
    <data timestep="134.00">
        <lanes/>
    </data>
    <data timestep="134.50">
        <lanes/>
    </data>
    <data timestep="135.00">
        <lanes/>
    </data>
    <data timestep="135.50">
        <lanes/>
    </data>
    <data timestep="136.00">
        <lanes/>
    </data>
    <data timestep="136.50">
        <lanes/>
    </data>
    <data timestep="137.00">
        <lanes/>
    </data>
    <data timestep="137.50">
        <lanes/>
    </data>
    <data timestep="138.00">
        <lanes/>
    </data>
    <data timestep="138.50">
        <lanes/>
    </data>
    <data timestep="139.00">
        <lanes/>
    </data>
    <data timestep="139.50">
        <lanes/>
    </data>
    <data timestep="140.00">
        <lanes/>
    </data>
    <data timestep="140.50">
        <lanes/>
    </data>
    <data timestep="141.00">
        <lanes/>
    </data>
    <data timestep="141.50">
        <lanes/>
    </data>
    <data timestep="142.00">
        <lanes/>
    </data>
    <data timestep="142.50">
        <lanes/>
    </data>
    <data timestep="143.00">
        <lanes/>
    </data>
    <data timestep="143.50">
        <lanes/>
    </data>
    <data timestep="144.00">
        <lanes/>
    </data>
    <data timestep="144.50">
        <lanes/>
    </data>
    <data timestep="145.00">
        <lanes/>
    </data>
    <data timestep="145.50">
        <lanes/>
    </data>
    <data timestep="146.00">
        <lanes/>
    </data>
    <data timestep="146.50">
        <lanes/>
    </data>
    <data timestep="147.00">
        <lanes/>
    </data>
    <data timestep="147.50">
        <lanes/>
    </data>
    <data timestep="148.00">
        <lanes/>
    </data>
    <data timestep="148.50">
        <lanes/>
    </data>
    <data timestep="149.00">
        <lanes/>
    </data>
    <data timestep="149.50">
        <lanes/>
    </data>
    <data timestep="150.00">
        <lanes/>
    </data>
    <data timestep="150.50">
        <lanes/>
    </data>
    <data timestep="151.00">
        <lanes/>
    </data>
    <data timestep="151.50">
        <lanes/>
    </data>
    <data timestep="152.00">
        <lanes/>
    </data>
    <data timestep="152.50">
        <lanes/>
    </data>
    <data timestep="153.00">
        <lanes/>
    </data>
    <data timestep="153.50">
        <lanes/>
    </data>
    <data timestep="154.00">
        <lanes/>
    </data>
    <data timestep="154.50">
        <lanes/>
    </data>
    <data timestep="155.00">
        <lanes/>
    </data>
    <data timestep="155.50">
        <lanes/>
    </data>
    <data timestep="156.00">
        <lanes/>
    </data>
    <data timestep="156.50">
        <lanes/>
    </data>
    <data timestep="157.00">
        <lanes/>
    </data>
    <data timestep="157.50">
        <lanes/>
    </data>
    <data timestep="158.00">
        <lanes/>
    </data>
    <data timestep="158.50">
        <lanes/>
    </data>
    <data timestep="159.00">
        <lanes/>
    </data>
    <data timestep="159.50">
        <lanes/>
    </data>
    <data timestep="160.00">
        <lanes/>
    </data>
    <data timestep="160.50">
        <lanes/>
    </data>
    <data timestep="161.00">
        <lanes/>
    </data>
    <data timestep="161.50">
        <lanes/>
    </data>
    <data timestep="162.00">
        <lanes/>
    </data>
    <data timestep="162.50">
        <lanes/>
    </data>
    <data timestep="163.00">
        <lanes/>
    </data>
    <data timestep="163.50">
        <lanes/>
    </data>
    <data timestep="164.00">
        <lanes/>
    </data>
    <data timestep="164.50">
        <lanes/>
    </data>
    <data timestep="165.00">
        <lanes/>
    </data>
    <data timestep="165.50">
        <lanes/>
    </data>
    <data timestep="166.00">
        <lanes/>
    </data>
    <data timestep="166.50">
        <lanes/>
    </data>
    <data timestep="167.00">
        <lanes/>
    </data>
    <data timestep="167.50">
        <lanes/>
    </data>
    <data timestep="168.00">
        <lanes/>
    </data>
    <data timestep="168.50">
        <lanes/>
    </data>
    <data timestep="169.00">
        <lanes/>
    </data>
    <data timestep="169.50">
        <lanes/>
    </data>
    <data timestep="170.00">
        <lanes/>
    </data>
    <data timestep="170.50">
        <lanes/>
    </data>
    <data timestep="171.00">
        <lanes/>
    </data>
    <data timestep="171.50">
        <lanes/>
    </data>
    <data timestep="172.00">
        <lanes/>
    </data>
    <data timestep="172.50">
        <lanes/>
    </data>
    <data timestep="173.00">
        <lanes/>
    </data>
    <data timestep="173.50">
        <lanes/>
    </data>
    <data timestep="174.00">
        <lanes/>
    </data>
    <data timestep="174.50">
        <lanes/>
    </data>
    <data timestep="175.00">
        <lanes/>
    </data>
    <data timestep="175.50">
        <lanes/>
    </data>
    <data timestep="176.00">
        <lanes/>
    </data>
    <data timestep="176.50">
        <lanes/>
    </data>
    <data timestep="177.00">
        <lanes/>
    </data>
    <data timestep="177.50">
        <lanes/>
    </data>
    <data timestep="178.00">
        <lanes/>
    </data>
    <data timestep="178.50">
        <lanes/>
    </data>
    <data timestep="179.00">
        <lanes/>
    </data>
    <data timestep="179.50">
        <lanes/>
    </data>
    <data timestep="180.00">
        <lanes/>
    </data>
    <data timestep="180.50">
        <lanes/>
    </data>
    <data timestep="181.00">
        <lanes/>
    </data>
    <data timestep="181.50">
        <lanes/>
    </data>
    <data timestep="182.00">
        <lanes/>
    </data>
    <data timestep="182.50">
        <lanes/>
    </data>
    <data timestep="183.00">
        <lanes/>
    </data>
    <data timestep="183.50">
        <lanes/>
    </data>
    <data timestep="184.00">
        <lanes/>
    </data>
    <data timestep="184.50">
        <lanes/>
    </data>
    <data timestep="185.00">
        <lanes/>
    </data>
    <data timestep="185.50">
        <lanes/>
    </data>
    <data timestep="186.00">
        <lanes/>
    </data>
    <data timestep="186.50">
        <lanes/>
    </data>
    <data timestep="187.00">
        <lanes/>
    </data>
    <data timestep="187.50">
        <lanes/>
    </data>
    <data timestep="188.00">
        <lanes/>
    </data>
    <data timestep="188.50">
        <lanes/>
    </data>
    <data timestep="189.00">
        <lanes/>
    </data>
    <data timestep="189.50">
        <lanes/>
    </data>
    <data timestep="190.00">
        <lanes/>
    </data>
    <data timestep="190.50">
        <lanes/>
    </data>
    <data timestep="191.00">
        <lanes/>
    </data>
    <data timestep="191.50">
        <lanes/>
    </data>
    <data timestep="192.00">
        <lanes/>
    </data>
    <data timestep="192.50">
        <lanes/>
    </data>
    <data timestep="193.00">
        <lanes/>
    </data>
    <data timestep="193.50">
        <lanes/>
    </data>
    <data timestep="194.00">
        <lanes/>
    </data>
    <data timestep="194.50">
        <lanes/>
    </data>
    <data timestep="195.00">
        <lanes/>
    </data>
    <data timestep="195.50">
        <lanes/>
    </data>
    <data timestep="196.00">
        <lanes/>
    </data>
    <data timestep="196.50">
        <lanes/>
    </data>
    <data timestep="197.00">
        <lanes/>
    </data>
    <data timestep="197.50">
        <lanes/>
    </data>
    <data timestep="198.00">
        <lanes/>
    </data>
    <data timestep="198.50">
        <lanes/>
    </data>
    <data timestep="199.00">
        <lanes/>
    </data>
    <data timestep="199.50">
        <lanes/>
    </data>
    <data timestep="200.00">
        <lanes/>
    </data>
    <data timestep="200.50">
        <lanes/>
    </data>
    <data timestep="201.00">
        <lanes/>
    </data>
    <data timestep="201.50">
        <lanes/>
    </data>
    <data timestep="202.00">
        <lanes/>
    </data>
    <data timestep="202.50">
        <lanes/>
    </data>
    <data timestep="203.00">
        <lanes/>
    </data>
    <data timestep="203.50">
        <lanes/>
    </data>
    <data timestep="204.00">
        <lanes/>
    </data>
    <data timestep="204.50">
        <lanes/>
    </data>
    <data timestep="205.00">
        <lanes/>
    </data>
    <data timestep="205.50">
        <lanes/>
    </data>
    <data timestep="206.00">
        <lanes/>
    </data>
    <data timestep="206.50">
        <lanes/>
    </data>
    <data timestep="207.00">
        <lanes/>
    </data>
    <data timestep="207.50">
        <lanes/>
    </data>
    <data timestep="208.00">
        <lanes/>
    </data>
    <data timestep="208.50">
        <lanes/>
    </data>
    <data timestep="209.00">
        <lanes/>
    </data>
    <data timestep="209.50">
        <lanes/>
    </data>
    <data timestep="210.00">
        <lanes/>
    </data>
    <data timestep="210.50">
        <lanes/>
    </data>
    <data timestep="211.00">
        <lanes/>
    </data>
    <data timestep="211.50">
        <lanes/>
    </data>
    <data timestep="212.00">
        <lanes/>
    </data>
    <data timestep="212.50">
        <lanes/>
    </data>
    <data timestep="213.00">
        <lanes/>
    </data>
    <data timestep="213.50">
        <lanes/>
    </data>
    <data timestep="214.00">
        <lanes/>
    </data>
    <data timestep="214.50">
        <lanes/>
    </data>
    <data timestep="215.00">
        <lanes/>
    </data>
    <data timestep="215.50">
        <lanes/>
    </data>
    <data timestep="216.00">
        <lanes/>
    </data>
    <data timestep="216.50">
        <lanes/>
    </data>
    <data timestep="217.00">
        <lanes/>
    </data>
    <data timestep="217.50">
        <lanes/>
    </data>
    <data timestep="218.00">
        <lanes/>
    </data>
    <data timestep="218.50">
        <lanes/>
    </data>
    <data timestep="219.00">
        <lanes/>
    </data>
    <data timestep="219.50">
        <lanes/>
    </data>
    <data timestep="220.00">
        <lanes/>
    </data>
    <data timestep="220.50">
        <lanes/>
    </data>
    <data timestep="221.00">
        <lanes/>
    </data>
    <data timestep="221.50">
        <lanes/>
    </data>
    <data timestep="222.00">
        <lanes/>
    </data>
    <data timestep="222.50">
        <lanes/>
    </data>
    <data timestep="223.00">
        <lanes/>
    </data>
    <data timestep="223.50">
        <lanes/>
    </data>
    <data timestep="224.00">
        <lanes/>
    </data>
    <data timestep="224.50">
        <lanes/>
    </data>
    <data timestep="225.00">
        <lanes/>
    </data>
    <data timestep="225.50">
        <lanes/>
    </data>
    <data timestep="226.00">
        <lanes/>
    </data>
    <data timestep="226.50">
        <lanes/>
    </data>
    <data timestep="227.00">
        <lanes/>
    </data>
    <data timestep="227.50">
        <lanes/>
    </data>
    <data timestep="228.00">
        <lanes/>
    </data>
    <data timestep="228.50">
        <lanes/>
    </data>
    <data timestep="229.00">
        <lanes/>
    </data>
    <data timestep="229.50">
        <lanes/>
    </data>
    <data timestep="230.00">
        <lanes/>
    </data>
    <data timestep="230.50">
        <lanes/>
    </data>
    <data timestep="231.00">
        <lanes/>
    </data>
    <data timestep="231.50">
        <lanes/>
    </data>
    <data timestep="232.00">
        <lanes/>
    </data>
    <data timestep="232.50">
        <lanes/>
    </data>
    <data timestep="233.00">
        <lanes/>
    </data>
    <data timestep="233.50">
        <lanes/>
    </data>
    <data timestep="234.00">
        <lanes/>
    </data>
    <data timestep="234.50">
        <lanes/>
    </data>
    <data timestep="235.00">
        <lanes/>
    </data>
    <data timestep="235.50">
        <lanes/>
    </data>
    <data timestep="236.00">
        <lanes/>
    </data>
    <data timestep="236.50">
        <lanes/>
    </data>
    <data timestep="237.00">
        <lanes/>
    </data>
    <data timestep="237.50">
        <lanes/>
    </data>
    <data timestep="238.00">
        <lanes/>
    </data>
    <data timestep="238.50">
        <lanes/>
    </data>
    <data timestep="239.00">
        <lanes/>
    </data>
    <data timestep="239.50">
        <lanes/>
    </data>
    <data timestep="240.00">
        <lanes/>
    </data>
    <data timestep="240.50">
        <lanes/>
    </data>
    <data timestep="241.00">
        <lanes/>
    </data>
    <data timestep="241.50">
        <lanes/>
    </data>
    <data timestep="242.00">
        <lanes/>
    </data>
    <data timestep="242.50">
        <lanes/>
    </data>
    <data timestep="243.00">
        <lanes/>
    </data>
    <data timestep="243.50">
        <lanes/>
    </data>
    <data timestep="244.00">
        <lanes/>
    </data>
    <data timestep="244.50">
        <lanes/>
    </data>
    <data timestep="245.00">
        <lanes/>
    </data>
    <data timestep="245.50">
        <lanes/>
    </data>
    <data timestep="246.00">
        <lanes/>
    </data>
    <data timestep="246.50">
        <lanes/>
    </data>
    <data timestep="247.00">
        <lanes/>
    </data>
    <data timestep="247.50">
        <lanes/>
    </data>
    <data timestep="248.00">
        <lanes/>
    </data>
    <data timestep="248.50">
        <lanes/>
    </data>
    <data timestep="249.00">
        <lanes/>
    </data>
    <data timestep="249.50">
        <lanes/>
    </data>
    <data timestep="250.00">
        <lanes/>
    </data>
    <data timestep="250.50">
        <lanes/>
    </data>