<?xml version="1.0" encoding="UTF-8"?>

<!-- generated on 2021-12-05 17:14:04 by Eclipse SUMO GUI Version 1.10.0
<configuration xmlns:xsi="http://www.w3.org/2001/XMLSchema-instance" xsi:noNamespaceSchemaLocation="http://sumo.dlr.de/xsd/sumoConfiguration.xsd">

    <input>
        <net-file value="cfg/twoWay6lanes.net.xml"/>
        <route-files value="cfg/twoWay6lanes.rou.xml"/>
    </input>

    <output>
        <queue-output value="cfg/queues.xml"/>
        <tripinfo-output value="my_output_file.xml"/>
    </output>

    <time>
        <step-length value="0.5"/>
    </time>

    <report>
        <verbose value="true"/>
        <duration-log.statistics value="true"/>
    </report>

    <traci_server>
        <remote-port value="53571"/>
    </traci_server>

    <gui_only>
        <gui-settings-file value="cfg/twoWay6lanes.gui.xml"/>
        <start value="true"/>
        <tracker-interval value="0.5"/>
    </gui_only>

</configuration>
-->

<queue-export xmlns:xsi="http://www.w3.org/2001/XMLSchema-instance" xsi:noNamespaceSchemaLocation="http://sumo.dlr.de/xsd/queue_file.xsd">
    <data timestep="0.00">
        <lanes/>
    </data>
    <data timestep="0.50">
        <lanes/>
    </data>
    <data timestep="1.00">
        <lanes/>
    </data>
    <data timestep="1.50">
        <lanes/>
    </data>
    <data timestep="2.00">
        <lanes/>
    </data>
    <data timestep="2.50">
        <lanes/>
    </data>
    <data timestep="3.00">
        <lanes/>
    </data>
    <data timestep="3.50">
        <lanes/>
    </data>
    <data timestep="4.00">
        <lanes/>
    </data>
    <data timestep="4.50">
        <lanes/>
    </data>
    <data timestep="5.00">
        <lanes/>
    </data>
    <data timestep="5.50">
        <lanes/>
    </data>
    <data timestep="6.00">
        <lanes/>
    </data>
    <data timestep="6.50">
        <lanes/>
    </data>
    <data timestep="7.00">
        <lanes/>
    </data>
    <data timestep="7.50">
        <lanes/>
    </data>
    <data timestep="8.00">
        <lanes/>
    </data>
    <data timestep="8.50">
        <lanes/>
    </data>
    <data timestep="9.00">
        <lanes/>
    </data>
    <data timestep="9.50">
        <lanes/>
    </data>
    <data timestep="10.00">
        <lanes/>
    </data>
    <data timestep="10.50">
        <lanes/>
    </data>
    <data timestep="11.00">
        <lanes/>
    </data>
    <data timestep="11.50">
        <lanes/>
    </data>
    <data timestep="12.00">
        <lanes/>
    </data>
    <data timestep="12.50">
        <lanes/>
    </data>
    <data timestep="13.00">
        <lanes/>
    </data>
    <data timestep="13.50">
        <lanes/>
    </data>
    <data timestep="14.00">
        <lanes/>
    </data>
    <data timestep="14.50">
        <lanes/>
    </data>
    <data timestep="15.00">
        <lanes/>
    </data>
    <data timestep="15.50">
        <lanes/>
    </data>
    <data timestep="16.00">
        <lanes/>
    </data>
    <data timestep="16.50">
        <lanes/>
    </data>
    <data timestep="17.00">
        <lanes/>
    </data>
    <data timestep="17.50">
        <lanes/>
    </data>
    <data timestep="18.00">
        <lanes/>
    </data>
    <data timestep="18.50">
        <lanes/>
    </data>
    <data timestep="19.00">
        <lanes/>
    </data>
    <data timestep="19.50">
        <lanes/>
    </data>
    <data timestep="20.00">
        <lanes/>
    </data>
    <data timestep="20.50">
        <lanes/>
    </data>
    <data timestep="21.00">
        <lanes/>
    </data>
    <data timestep="21.50">
        <lanes/>
    </data>
    <data timestep="22.00">
        <lanes/>
    </data>
    <data timestep="22.50">
        <lanes/>
    </data>
    <data timestep="23.00">
        <lanes/>
    </data>
    <data timestep="23.50">
        <lanes/>
    </data>
    <data timestep="24.00">
        <lanes/>
    </data>
    <data timestep="24.50">
        <lanes/>
    </data>
    <data timestep="25.00">
        <lanes/>
    </data>
    <data timestep="25.50">
        <lanes/>
    </data>
    <data timestep="26.00">
        <lanes/>
    </data>
    <data timestep="26.50">
        <lanes/>
    </data>
    <data timestep="27.00">
        <lanes/>
    </data>
    <data timestep="27.50">
        <lanes/>
    </data>
    <data timestep="28.00">
        <lanes/>
    </data>
    <data timestep="28.50">
        <lanes/>
    </data>
    <data timestep="29.00">
        <lanes/>
    </data>
    <data timestep="29.50">
        <lanes/>
    </data>
    <data timestep="30.00">
        <lanes/>
    </data>
    <data timestep="30.50">
        <lanes/>
    </data>
    <data timestep="31.00">
        <lanes/>
    </data>
    <data timestep="31.50">
        <lanes/>
    </data>
    <data timestep="32.00">
        <lanes/>
    </data>
    <data timestep="32.50">
        <lanes/>
    </data>
    <data timestep="33.00">
        <lanes/>
    </data>
    <data timestep="33.50">
        <lanes/>
    </data>
    <data timestep="34.00">
        <lanes/>
    </data>
    <data timestep="34.50">
        <lanes/>
    </data>
    <data timestep="35.00">
        <lanes/>
    </data>
    <data timestep="35.50">
        <lanes/>
    </data>
    <data timestep="36.00">
        <lanes/>
    </data>
    <data timestep="36.50">
        <lanes/>
    </data>
    <data timestep="37.00">
        <lanes/>
    </data>
    <data timestep="37.50">
        <lanes/>
    </data>
    <data timestep="38.00">
        <lanes/>
    </data>
    <data timestep="38.50">
        <lanes/>
    </data>
    <data timestep="39.00">
        <lanes/>
    </data>
    <data timestep="39.50">
        <lanes/>
    </data>
    <data timestep="40.00">
        <lanes/>
    </data>
    <data timestep="40.50">
        <lanes/>
    </data>
    <data timestep="41.00">
        <lanes/>
    </data>
    <data timestep="41.50">
        <lanes/>
    </data>
    <data timestep="42.00">
        <lanes/>
    </data>
    <data timestep="42.50">
        <lanes/>
    </data>
    <data timestep="43.00">
        <lanes/>
    </data>
    <data timestep="43.50">
        <lanes/>
    </data>
    <data timestep="44.00">
        <lanes/>
    </data>
    <data timestep="44.50">
        <lanes/>
    </data>
    <data timestep="45.00">
        <lanes/>
    </data>
    <data timestep="45.50">
        <lanes/>
    </data>
    <data timestep="46.00">
        <lanes/>
    </data>
    <data timestep="46.50">
        <lanes/>
    </data>
    <data timestep="47.00">
        <lanes/>
    </data>
    <data timestep="47.50">
        <lanes/>
    </data>
    <data timestep="48.00">
        <lanes/>
    </data>
    <data timestep="48.50">
        <lanes/>
    </data>
    <data timestep="49.00">
        <lanes/>
    </data>
    <data timestep="49.50">
        <lanes/>
    </data>
    <data timestep="50.00">
        <lanes/>
    </data>
    <data timestep="50.50">
        <lanes/>
    </data>
    <data timestep="51.00">
        <lanes/>
    </data>
    <data timestep="51.50">
        <lanes/>
    </data>
    <data timestep="52.00">
        <lanes/>
    </data>
    <data timestep="52.50">
        <lanes/>
    </data>
    <data timestep="53.00">
        <lanes/>
    </data>
    <data timestep="53.50">
        <lanes/>
    </data>
    <data timestep="54.00">
        <lanes/>
    </data>
    <data timestep="54.50">
        <lanes/>
    </data>
    <data timestep="55.00">
        <lanes/>
    </data>
    <data timestep="55.50">
        <lanes/>
    </data>
    <data timestep="56.00">
        <lanes/>
    </data>
    <data timestep="56.50">
        <lanes/>
    </data>
    <data timestep="57.00">
        <lanes/>
    </data>
    <data timestep="57.50">
        <lanes/>
    </data>
    <data timestep="58.00">
        <lanes/>
    </data>
    <data timestep="58.50">
        <lanes/>
    </data>
    <data timestep="59.00">
        <lanes/>
    </data>
    <data timestep="59.50">
        <lanes/>
    </data>
    <data timestep="60.00">
        <lanes/>
    </data>
    <data timestep="60.50">
        <lanes/>
    </data>
    <data timestep="61.00">
        <lanes/>
    </data>
    <data timestep="61.50">
        <lanes/>
    </data>
    <data timestep="62.00">
        <lanes/>
    </data>
    <data timestep="62.50">
        <lanes/>
    </data>
    <data timestep="63.00">
        <lanes/>
    </data>
    <data timestep="63.50">
        <lanes/>
    </data>
    <data timestep="64.00">
        <lanes/>
    </data>
    <data timestep="64.50">
        <lanes/>
    </data>
    <data timestep="65.00">
        <lanes/>
    </data>
    <data timestep="65.50">
        <lanes/>
    </data>
    <data timestep="66.00">
        <lanes/>
    </data>
    <data timestep="66.50">
        <lanes/>
    </data>
    <data timestep="67.00">
        <lanes/>
    </data>
    <data timestep="67.50">
        <lanes/>
    </data>
    <data timestep="68.00">
        <lanes/>
    </data>
    <data timestep="68.50">
        <lanes/>
    </data>
    <data timestep="69.00">
        <lanes/>
    </data>
    <data timestep="69.50">
        <lanes/>
    </data>
    <data timestep="70.00">
        <lanes/>
    </data>
    <data timestep="70.50">
        <lanes/>
    </data>
    <data timestep="71.00">
        <lanes/>
    </data>
    <data timestep="71.50">
        <lanes/>
    </data>
    <data timestep="72.00">
        <lanes/>
    </data>
    <data timestep="72.50">
        <lanes/>
    </data>
    <data timestep="73.00">
        <lanes/>
    </data>
    <data timestep="73.50">
        <lanes/>
    </data>
    <data timestep="74.00">
        <lanes/>
    </data>
    <data timestep="74.50">
        <lanes/>
    </data>
    <data timestep="75.00">
        <lanes/>
    </data>
    <data timestep="75.50">
        <lanes/>
    </data>
    <data timestep="76.00">
        <lanes/>
    </data>
    <data timestep="76.50">
        <lanes/>
    </data>
    <data timestep="77.00">
        <lanes/>
    </data>
    <data timestep="77.50">
        <lanes/>
    </data>
    <data timestep="78.00">
        <lanes/>
    </data>
    <data timestep="78.50">
        <lanes/>
    </data>
    <data timestep="79.00">
        <lanes/>
    </data>
    <data timestep="79.50">
        <lanes/>
    </data>
    <data timestep="80.00">
        <lanes/>
    </data>
    <data timestep="80.50">
        <lanes/>
    </data>
    <data timestep="81.00">
        <lanes/>
    </data>
    <data timestep="81.50">
        <lanes/>
    </data>
    <data timestep="82.00">
        <lanes>
            <lane id="end2_junction_1" queueing_time="0.00" queueing_length="0.00" queueing_length_experimental="263.08"/>
            <lane id="end3_junction_2" queueing_time="0.00" queueing_length="0.00" queueing_length_experimental="250.77"/>
        </lanes>
    </data>
    <data timestep="82.50">
        <lanes>
            <lane id="end1_junction_1" queueing_time="0.00" queueing_length="0.00" queueing_length_experimental="258.82"/>
            <lane id="end2_junction_1" queueing_time="0.00" queueing_length="0.00" queueing_length_experimental="262.59"/>
            <lane id="end2_junction_2" queueing_time="0.00" queueing_length="0.00" queueing_length_experimental="273.32"/>
            <lane id="end3_junction_2" queueing_time="0.00" queueing_length="0.00" queueing_length_experimental="250.13"/>
        </lanes>
    </data>
    <data timestep="83.00">
        <lanes>
            <lane id="end1_junction_1" queueing_time="0.00" queueing_length="0.00" queueing_length_experimental="258.31"/>
            <lane id="end2_junction_1" queueing_time="0.00" queueing_length="0.00" queueing_length_experimental="262.11"/>
            <lane id="end2_junction_2" queueing_time="0.00" queueing_length="0.00" queueing_length_experimental="272.84"/>
        </lanes>
    </data>
    <data timestep="83.50">
        <lanes>
            <lane id="end1_junction_1" queueing_time="0.00" queueing_length="0.00" queueing_length_experimental="257.77"/>
            <lane id="end2_junction_1" queueing_time="0.00" queueing_length="0.00" queueing_length_experimental="261.66"/>
            <lane id="end2_junction_2" queueing_time="0.00" queueing_length="0.00" queueing_length_experimental="272.28"/>
        </lanes>
    </data>
    <data timestep="84.00">
        <lanes>
            <lane id="end1_junction_1" queueing_time="0.00" queueing_length="0.00" queueing_length_experimental="257.08"/>
            <lane id="end2_junction_1" queueing_time="0.00" queueing_length="0.00" queueing_length_experimental="261.23"/>
        </lanes>
    </data>
    <data timestep="84.50">
        <lanes>
            <lane id="end2_junction_1" queueing_time="0.00" queueing_length="0.00" queueing_length_experimental="260.73"/>
        </lanes>
    </data>
    <data timestep="85.00">
        <lanes>
            <lane id="end2_junction_1" queueing_time="0.00" queueing_length="0.00" queueing_length_experimental="260.07"/>
        </lanes>
    </data>
    <data timestep="85.50">
        <lanes/>
    </data>
    <data timestep="86.00">
        <lanes/>
    </data>
    <data timestep="86.50">
        <lanes/>
    </data>
    <data timestep="87.00">
        <lanes/>
    </data>
    <data timestep="87.50">
        <lanes/>
    </data>
    <data timestep="88.00">
        <lanes/>
    </data>
    <data timestep="88.50">
        <lanes>
            <lane id="end2_junction_2" queueing_time="0.00" queueing_length="0.00" queueing_length_experimental="281.73"/>
        </lanes>
    </data>
    <data timestep="89.00">
        <lanes>
            <lane id="end2_junction_2" queueing_time="0.00" queueing_length="0.00" queueing_length_experimental="281.05"/>
        </lanes>
    </data>
    <data timestep="89.50">
        <lanes/>
    </data>
    <data timestep="90.00">
        <lanes/>
    </data>
    <data timestep="90.50">
        <lanes/>
    </data>
    <data timestep="91.00">
        <lanes/>
    </data>
    <data timestep="91.50">
        <lanes/>
    </data>
    <data timestep="92.00">
        <lanes/>
    </data>
    <data timestep="92.50">
        <lanes/>
    </data>
    <data timestep="93.00">
        <lanes/>
    </data>
    <data timestep="93.50">
        <lanes/>
    </data>
    <data timestep="94.00">
        <lanes/>
    </data>
    <data timestep="94.50">
        <lanes>
            <lane id="end2_junction_1" queueing_time="0.00" queueing_length="0.00" queueing_length_experimental="276.05"/>
            <lane id="end3_junction_2" queueing_time="0.00" queueing_length="0.00" queueing_length_experimental="282.43"/>
        </lanes>
    </data>
    <data timestep="95.00">
        <lanes>
            <lane id="end2_junction_1" queueing_time="0.00" queueing_length="0.00" queueing_length_experimental="275.53"/>
            <lane id="end3_junction_2" queueing_time="0.00" queueing_length="0.00" queueing_length_experimental="281.87"/>
        </lanes>
    </data>
    <data timestep="95.50">
        <lanes>
            <lane id="end1_junction_1" queueing_time="0.00" queueing_length="0.00" queueing_length_experimental="284.59"/>
            <lane id="end2_junction_1" queueing_time="0.00" queueing_length="0.00" queueing_length_experimental="274.92"/>
            <lane id="end3_junction_2" queueing_time="0.00" queueing_length="0.00" queueing_length_experimental="281.20"/>
        </lanes>
    </data>
    <data timestep="96.00">
        <lanes>
            <lane id="end1_junction_1" queueing_time="0.00" queueing_length="0.00" queueing_length_experimental="284.25"/>
        </lanes>
    </data>
    <data timestep="96.50">
        <lanes>
            <lane id="end1_junction_1" queueing_time="0.00" queueing_length="0.00" queueing_length_experimental="283.84"/>
            <lane id="end3_junction_1" queueing_time="0.00" queueing_length="0.00" queueing_length_experimental="268.94"/>
        </lanes>
    </data>
    <data timestep="97.00">
        <lanes>
            <lane id="end1_junction_1" queueing_time="0.00" queueing_length="0.00" queueing_length_experimental="283.26"/>
            <lane id="end3_junction_1" queueing_time="0.00" queueing_length="0.00" queueing_length_experimental="268.42"/>
        </lanes>
    </data>
    <data timestep="97.50">
        <lanes>
            <lane id="end3_junction_1" queueing_time="0.00" queueing_length="0.00" queueing_length_experimental="267.84"/>
        </lanes>
    </data>
    <data timestep="98.00">
        <lanes>
            <lane id="end3_junction_1" queueing_time="0.00" queueing_length="0.00" queueing_length_experimental="267.18"/>
        </lanes>
    </data>
    <data timestep="98.50">
        <lanes>
            <lane id="end2_junction_1" queueing_time="0.00" queueing_length="0.00" queueing_length_experimental="269.85"/>
            <lane id="end3_junction_1" queueing_time="0.00" queueing_length="0.00" queueing_length_experimental="266.49"/>
            <lane id="end4_junction_1" queueing_time="0.00" queueing_length="0.00" queueing_length_experimental="279.43"/>
        </lanes>
    </data>
    <data timestep="99.00">
        <lanes>
            <lane id="end1_junction_1" queueing_time="0.00" queueing_length="0.00" queueing_length_experimental="280.21"/>
            <lane id="end3_junction_1" queueing_time="0.00" queueing_length="0.00" queueing_length_experimental="265.85"/>
            <lane id="end4_junction_1" queueing_time="0.00" queueing_length="0.00" queueing_length_experimental="279.01"/>
        </lanes>
    </data>
    <data timestep="99.50">
        <lanes>
            <lane id="end1_junction_1" queueing_time="0.00" queueing_length="0.00" queueing_length_experimental="279.60"/>
            <lane id="end3_junction_1" queueing_time="0.00" queueing_length="0.00" queueing_length_experimental="265.26"/>
            <lane id="end4_junction_1" queueing_time="0.00" queueing_length="0.00" queueing_length_experimental="278.59"/>
        </lanes>
    </data>
    <data timestep="100.00">
        <lanes>
            <lane id="end1_junction_1" queueing_time="0.00" queueing_length="0.00" queueing_length_experimental="278.95"/>
            <lane id="end3_junction_1" queueing_time="0.00" queueing_length="0.00" queueing_length_experimental="264.64"/>
            <lane id="end4_junction_1" queueing_time="0.00" queueing_length="0.00" queueing_length_experimental="278.14"/>
        </lanes>
    </data>
    <data timestep="100.50">
        <lanes>
            <lane id="end4_junction_1" queueing_time="0.00" queueing_length="0.00" queueing_length_experimental="288.08"/>
        </lanes>
    </data>
    <data timestep="101.00">
        <lanes>
            <lane id="end4_junction_1" queueing_time="0.00" queueing_length="0.00" queueing_length_experimental="287.64"/>
        </lanes>
    </data>
    <data timestep="101.50">
        <lanes>
            <lane id="end4_junction_1" queueing_time="0.00" queueing_length="0.00" queueing_length_experimental="287.20"/>
        </lanes>
    </data>
    <data timestep="102.00">
        <lanes>
            <lane id="end1_junction_1" queueing_time="0.00" queueing_length="0.00" queueing_length_experimental="259.13"/>
            <lane id="end2_junction_2" queueing_time="0.00" queueing_length="0.00" queueing_length_experimental="256.42"/>
            <lane id="end4_junction_1" queueing_time="0.00" queueing_length="0.00" queueing_length_experimental="286.71"/>
        </lanes>
    </data>
    <data timestep="102.50">
        <lanes>
            <lane id="end2_junction_1" queueing_time="0.00" queueing_length="0.00" queueing_length_experimental="281.96"/>
            <lane id="end3_junction_1" queueing_time="0.00" queueing_length="0.00" queueing_length_experimental="260.41"/>
            <lane id="end3_junction_2" queueing_time="0.00" queueing_length="0.00" queueing_length_experimental="268.46"/>
            <lane id="end4_junction_1" queueing_time="0.00" queueing_length="0.00" queueing_length_experimental="286.11"/>
        </lanes>
    </data>
    <data timestep="103.00">
        <lanes>
            <lane id="end1_junction_1" queueing_time="0.00" queueing_length="0.00" queueing_length_experimental="273.82"/>
            <lane id="end2_junction_1" queueing_time="0.00" queueing_length="0.00" queueing_length_experimental="281.43"/>
            <lane id="end3_junction_1" queueing_time="0.00" queueing_length="0.00" queueing_length_experimental="260.01"/>
            <lane id="end3_junction_2" queueing_time="0.00" queueing_length="0.00" queueing_length_experimental="267.96"/>
            <lane id="end4_junction_1" queueing_time="0.00" queueing_length="0.00" queueing_length_experimental="285.52"/>
        </lanes>
    </data>
    <data timestep="103.50">
        <lanes>
            <lane id="end1_junction_1" queueing_time="0.00" queueing_length="0.00" queueing_length_experimental="273.48"/>
            <lane id="end2_junction_1" queueing_time="0.00" queueing_length="0.00" queueing_length_experimental="281.01"/>
            <lane id="end3_junction_1" queueing_time="0.00" queueing_length="0.00" queueing_length_experimental="259.72"/>
            <lane id="end4_junction_1" queueing_time="0.00" queueing_length="0.00" queueing_length_experimental="285.04"/>
        </lanes>
    </data>
    <data timestep="104.00">
        <lanes>
            <lane id="end1_junction_1" queueing_time="0.00" queueing_length="0.00" queueing_length_experimental="273.08"/>
            <lane id="end2_junction_1" queueing_time="0.00" queueing_length="0.00" queueing_length_experimental="290.63"/>
            <lane id="end3_junction_1" queueing_time="0.00" queueing_length="0.00" queueing_length_experimental="259.34"/>
            <lane id="end4_junction_1" queueing_time="0.00" queueing_length="0.00" queueing_length_experimental="284.70"/>
        </lanes>
    </data>
    <data timestep="104.50">
        <lanes>
            <lane id="end2_junction_1" queueing_time="0.00" queueing_length="0.00" queueing_length_experimental="290.14"/>
            <lane id="end4_junction_1" queueing_time="0.00" queueing_length="0.00" queueing_length_experimental="284.46"/>
        </lanes>
    </data>
    <data timestep="105.00">
        <lanes>
            <lane id="end2_junction_1" queueing_time="0.00" queueing_length="0.00" queueing_length_experimental="289.76"/>
            <lane id="end4_junction_1" queueing_time="0.00" queueing_length="0.00" queueing_length_experimental="284.25"/>
        </lanes>
    </data>
    <data timestep="105.50">
        <lanes>
            <lane id="end2_junction_1" queueing_time="0.00" queueing_length="0.00" queueing_length_experimental="300.41"/>
            <lane id="end4_junction_1" queueing_time="0.00" queueing_length="0.00" queueing_length_experimental="284.02"/>
        </lanes>
    </data>
    <data timestep="106.00">
        <lanes>
            <lane id="end2_junction_1" queueing_time="0.00" queueing_length="0.00" queueing_length_experimental="299.87"/>
            <lane id="end4_junction_1" queueing_time="0.00" queueing_length="0.00" queueing_length_experimental="283.64"/>
        </lanes>
    </data>
    <data timestep="106.50">
        <lanes>
            <lane id="end2_junction_1" queueing_time="0.00" queueing_length="0.00" queueing_length_experimental="299.42"/>
            <lane id="end4_junction_1" queueing_time="0.00" queueing_length="0.00" queueing_length_experimental="283.00"/>
        </lanes>
    </data>
    <data timestep="107.00">
        <lanes>
            <lane id="end2_junction_1" queueing_time="0.00" queueing_length="0.00" queueing_length_experimental="298.98"/>
        </lanes>
    </data>
    <data timestep="107.50">
        <lanes>
            <lane id="end2_junction_1" queueing_time="0.00" queueing_length="0.00" queueing_length_experimental="298.49"/>
        </lanes>
    </data>
    <data timestep="108.00">
        <lanes>
            <lane id="end2_junction_1" queueing_time="0.00" queueing_length="0.00" queueing_length_experimental="297.89"/>
        </lanes>
    </data>
    <data timestep="108.50">
        <lanes/>
    </data>
    <data timestep="109.00">
        <lanes>
            <lane id="end1_junction_1" queueing_time="0.00" queueing_length="0.00" queueing_length_experimental="259.46"/>
            <lane id="end1_junction_2" queueing_time="0.00" queueing_length="0.00" queueing_length_experimental="243.84"/>
            <lane id="end3_junction_1" queueing_time="0.00" queueing_length="0.00" queueing_length_experimental="246.57"/>
            <lane id="end4_junction_1" queueing_time="0.00" queueing_length="0.00" queueing_length_experimental="262.85"/>
        </lanes>
    </data>
    <data timestep="109.50">
        <lanes>
            <lane id="end1_junction_1" queueing_time="0.00" queueing_length="0.00" queueing_length_experimental="279.47"/>
            <lane id="end1_junction_2" queueing_time="0.00" queueing_length="0.00" queueing_length_experimental="260.80"/>
            <lane id="end2_junction_1" queueing_time="0.00" queueing_length="0.00" queueing_length_experimental="283.33"/>
            <lane id="end3_junction_1" queueing_time="0.00" queueing_length="0.00" queueing_length_experimental="245.92"/>
            <lane id="end4_junction_1" queueing_time="0.00" queueing_length="0.00" queueing_length_experimental="276.87"/>
        </lanes>
    </data>
    <data timestep="110.00">
        <lanes>
            <lane id="end1_junction_1" queueing_time="0.00" queueing_length="0.00" queueing_length_experimental="279.08"/>
            <lane id="end1_junction_2" queueing_time="0.00" queueing_length="0.00" queueing_length_experimental="260.38"/>
            <lane id="end2_junction_1" queueing_time="0.00" queueing_length="0.00" queueing_length_experimental="282.95"/>
            <lane id="end4_junction_1" queueing_time="0.00" queueing_length="0.00" queueing_length_experimental="276.46"/>
        </lanes>
    </data>
    <data timestep="110.50">
        <lanes>
            <lane id="end1_junction_1" queueing_time="0.00" queueing_length="0.00" queueing_length_experimental="278.84"/>
            <lane id="end1_junction_2" queueing_time="0.00" queueing_length="0.00" queueing_length_experimental="260.13"/>
            <lane id="end2_junction_1" queueing_time="0.00" queueing_length="0.00" queueing_length_experimental="282.70"/>
            <lane id="end4_junction_1" queueing_time="0.00" queueing_length="0.00" queueing_length_experimental="276.10"/>
        </lanes>
    </data>
    <data timestep="111.00">
        <lanes>
            <lane id="end1_junction_1" queueing_time="0.00" queueing_length="0.00" queueing_length_experimental="278.69"/>
            <lane id="end1_junction_2" queueing_time="0.00" queueing_length="0.00" queueing_length_experimental="260.00"/>
            <lane id="end2_junction_1" queueing_time="0.00" queueing_length="0.00" queueing_length_experimental="293.00"/>
            <lane id="end4_junction_1" queueing_time="0.00" queueing_length="0.00" queueing_length_experimental="275.68"/>
        </lanes>
    </data>
    <data timestep="111.50">
        <lanes>
            <lane id="end1_junction_1" queueing_time="0.00" queueing_length="0.00" queueing_length_experimental="278.51"/>
            <lane id="end1_junction_2" queueing_time="0.00" queueing_length="0.00" queueing_length_experimental="283.30"/>
            <lane id="end2_junction_1" queueing_time="0.00" queueing_length="0.00" queueing_length_experimental="292.51"/>
            <lane id="end3_junction_1" queueing_time="0.00" queueing_length="0.00" queueing_length_experimental="274.03"/>
            <lane id="end4_junction_1" queueing_time="0.00" queueing_length="0.00" queueing_length_experimental="275.06"/>
        </lanes>
    </data>
    <data timestep="112.00">
        <lanes>
            <lane id="end1_junction_1" queueing_time="0.00" queueing_length="0.00" queueing_length_experimental="278.14"/>
            <lane id="end1_junction_2" queueing_time="0.00" queueing_length="0.00" queueing_length_experimental="283.19"/>
            <lane id="end2_junction_1" queueing_time="0.00" queueing_length="0.00" queueing_length_experimental="292.16"/>
            <lane id="end3_junction_1" queueing_time="0.00" queueing_length="0.00" queueing_length_experimental="273.76"/>
        </lanes>
    </data>
    <data timestep="112.50">
        <lanes>
            <lane id="end1_junction_1" queueing_time="0.00" queueing_length="0.00" queueing_length_experimental="277.46"/>
            <lane id="end1_junction_2" queueing_time="0.50" queueing_length="283.19" queueing_length_experimental="283.19"/>
            <lane id="end2_junction_1" queueing_time="0.00" queueing_length="0.00" queueing_length_experimental="291.93"/>
            <lane id="end3_junction_1" queueing_time="0.50" queueing_length="273.76" queueing_length_experimental="273.76"/>
        </lanes>
    </data>
    <data timestep="113.00">
        <lanes>
            <lane id="end1_junction_2" queueing_time="1.00" queueing_length="283.19" queueing_length_experimental="296.18"/>
            <lane id="end2_junction_1" queueing_time="0.00" queueing_length="0.00" queueing_length_experimental="291.77"/>
            <lane id="end3_junction_1" queueing_time="1.00" queueing_length="273.76" queueing_length_experimental="283.30"/>
        </lanes>
    </data>
    <data timestep="113.50">
        <lanes>
            <lane id="end1_junction_2" queueing_time="1.50" queueing_length="283.19" queueing_length_experimental="295.80"/>
            <lane id="end2_junction_1" queueing_time="0.00" queueing_length="0.00" queueing_length_experimental="291.59"/>
            <lane id="end3_junction_1" queueing_time="0.00" queueing_length="0.00" queueing_length_experimental="283.07"/>
        </lanes>
    </data>
    <data timestep="114.00">
        <lanes>
            <lane id="end1_junction_2" queueing_time="0.00" queueing_length="0.00" queueing_length_experimental="295.57"/>
            <lane id="end2_junction_1" queueing_time="0.00" queueing_length="0.00" queueing_length_experimental="291.29"/>